-2.278423242187500000e+04
-2.278115234375000000e+04
-2.278021289062500000e+04
-2.277757617187500000e+04
-2.277420703125000000e+04
-2.276792578125000000e+04
-2.276766015625000000e+04
-2.276748632812500000e+04
-2.276742773437500000e+04
-2.276722265625000000e+04
-2.276713476562500000e+04
-2.276709375000000000e+04
-2.276679492187500000e+04
-2.276632812500000000e+04
-2.276607031250000000e+04
-2.276519335937500000e+04
-2.276330859375000000e+04
-2.276340234375000000e+04
-2.276420898437500000e+04
-2.276468945312500000e+04
-2.276477148437500000e+04
-2.276481250000000000e+04
-2.276481054687500000e+04
-2.276478515625000000e+04
-2.276476562500000000e+04
-2.276475000000000000e+04
-2.276473437500000000e+04
-2.276472265625000000e+04
-2.276487109375000000e+04
-2.276536523437500000e+04
-2.276579882812500000e+04
-2.276596679687500000e+04
-2.276546484375000000e+04
-2.276321679687500000e+04
-2.276308984375000000e+04
-2.276221093750000000e+04
-2.276193945312500000e+04
-2.276165039062500000e+04
-2.276104101562500000e+04
-2.276057031250000000e+04
-2.276041406250000000e+04
-2.275996289062500000e+04
-2.275934570312500000e+04
-2.275902148437500000e+04
-2.275876367187500000e+04
-2.275871679687500000e+04
-2.275861718750000000e+04
-2.275846289062500000e+04
-2.275840429687500000e+04
-2.275826757812500000e+04
-2.275819335937500000e+04
-2.275783984375000000e+04
-2.275776171875000000e+04
-2.275781054687500000e+04
-2.275981054687500000e+04
-2.276059179687500000e+04
-2.276114062500000000e+04
-2.276130273437500000e+04
-2.276051757812500000e+04
-2.276017968750000000e+04
-2.276006445312500000e+04
-2.276009960937500000e+04
-2.276010742187500000e+04
-2.276011328125000000e+04
-2.276008203125000000e+04
-2.275992578125000000e+04
-2.275985742187500000e+04
-2.275970703125000000e+04
-2.275953515625000000e+04
-2.275943945312500000e+04
-2.275894140625000000e+04
-2.275824218750000000e+04
-2.275689453125000000e+04
-2.275641210937500000e+04
-2.275608789062500000e+04
-2.275607031250000000e+04
-2.275601171875000000e+04
-2.275580078125000000e+04
-2.275431054687500000e+04
-2.275392187500000000e+04
-2.275193750000000000e+04
-2.275158398437500000e+04
-2.274713671875000000e+04
-2.274700390625000000e+04
-2.274687890625000000e+04
-2.274543164062500000e+04
-2.274535156250000000e+04
-2.274510546875000000e+04
-2.274527539062500000e+04
-2.274563671875000000e+04
-2.274633593750000000e+04
-2.274621093750000000e+04
-2.274576171875000000e+04
-2.274451953125000000e+04
-2.274446484375000000e+04
-2.274430468750000000e+04
-2.274403906250000000e+04
-2.274327539062500000e+04
-2.274310937500000000e+04
-2.274293164062500000e+04
-2.274236523437500000e+04
-2.274113867187500000e+04
-2.274098828125000000e+04
-2.274083593750000000e+04
-2.274054687500000000e+04
-2.274031835937500000e+04
-2.273993750000000000e+04
-2.273979687500000000e+04
-2.273947656250000000e+04
-2.273905664062500000e+04
-2.273884570312500000e+04
-2.273817578125000000e+04
-2.273738085937500000e+04
-2.273738281250000000e+04
-2.273739453125000000e+04
-2.273740234375000000e+04
-2.273743164062500000e+04
-2.273741015625000000e+04
-2.273725781250000000e+04
-2.273715429687500000e+04
-2.273710742187500000e+04
-2.273712695312500000e+04
-2.273716015625000000e+04
-2.273732226562500000e+04
-2.273799218750000000e+04
-2.273803125000000000e+04
-2.273809179687500000e+04
-2.273804687500000000e+04
-2.273726171875000000e+04
-2.273673242187500000e+04
-2.273655468750000000e+04
-2.273621679687500000e+04
-2.273612109375000000e+04
-2.273603710937500000e+04
-2.273533789062500000e+04
-2.273534375000000000e+04
-2.273485546875000000e+04
-2.273477734375000000e+04
-2.273458398437500000e+04
-2.273434960937500000e+04
-2.273428906250000000e+04
-2.273433398437500000e+04
-2.273432421875000000e+04
-2.273361328125000000e+04
-2.273334960937500000e+04
-2.273257226562500000e+04
-2.273236132812500000e+04
-2.273252734375000000e+04
-2.273246093750000000e+04
-2.273239648437500000e+04
-2.273222656250000000e+04
-2.273260742187500000e+04
-2.273296289062500000e+04
-2.273403515625000000e+04
-2.273454882812500000e+04
-2.273486328125000000e+04
-2.273485351562500000e+04
-2.273467773437500000e+04
-2.273376171875000000e+04
-2.273316406250000000e+04
-2.273288671875000000e+04
-2.273303320312500000e+04
-2.273355664062500000e+04
-2.273358203125000000e+04
-2.273350195312500000e+04
-2.273342187500000000e+04
-2.273270898437500000e+04
-2.273220507812500000e+04
-2.273175000000000000e+04
-2.273141406250000000e+04
-2.273122851562500000e+04
-2.273134960937500000e+04
-2.273145507812500000e+04
-2.273092382812500000e+04
-2.272916601562500000e+04
-2.272885546875000000e+04
-2.272765039062500000e+04
-2.272618554687500000e+04
-2.272600195312500000e+04
-2.272646289062500000e+04
-2.272987304687500000e+04
-2.273018359375000000e+04
-2.273107617187500000e+04
-2.273196875000000000e+04
-2.273289062500000000e+04
-2.273319921875000000e+04
-2.273614257812500000e+04
-2.273636523437500000e+04
-2.273672656250000000e+04
-2.273391992187500000e+04
-2.273328125000000000e+04
-2.273298437500000000e+04
-2.273239843750000000e+04
-2.273015234375000000e+04
-2.273045898437500000e+04
-2.273080078125000000e+04
-2.273273242187500000e+04
-2.273353125000000000e+04
-2.273406835937500000e+04
-2.273397656250000000e+04
-2.273354687500000000e+04
-2.273404882812500000e+04
-2.273375976562500000e+04
-2.273346484375000000e+04
-2.273323828125000000e+04
-2.273241601562500000e+04
-2.273248437500000000e+04
-2.273324218750000000e+04
-2.273342773437500000e+04
-2.273319921875000000e+04
-2.273240625000000000e+04
-2.273014843750000000e+04
-2.272982617187500000e+04
-2.273004882812500000e+04
-2.273094726562500000e+04
-2.273117968750000000e+04
-2.273319335937500000e+04
-2.273524804687500000e+04
-2.273629687500000000e+04
-2.273643945312500000e+04
-2.273648632812500000e+04
-2.273723242187500000e+04
-2.273699023437500000e+04
-2.273682031250000000e+04
-2.273673828125000000e+04
-2.273596484375000000e+04
-2.273580078125000000e+04
-2.273492578125000000e+04
-2.273485351562500000e+04
-2.273439648437500000e+04
-2.273409570312500000e+04
-2.273372851562500000e+04
-2.273363085937500000e+04
-2.273353515625000000e+04
-2.273308984375000000e+04
-2.273290429687500000e+04
-2.273295703125000000e+04
-2.273310351562500000e+04
-2.273344335937500000e+04
-2.273329296875000000e+04
-2.273307031250000000e+04
-2.272906250000000000e+04
-2.272838671875000000e+04
-2.272793945312500000e+04
-2.272728320312500000e+04
-2.272757031250000000e+04
-2.272773046875000000e+04
-2.272924804687500000e+04
-2.272933984375000000e+04
-2.272927148437500000e+04
-2.272877148437500000e+04
-2.272862890625000000e+04
-2.272819921875000000e+04
-2.272785546875000000e+04
-2.272770507812500000e+04
-2.272798242187500000e+04
-2.272886132812500000e+04
-2.272730859375000000e+04
-2.272711328125000000e+04
-2.272564062500000000e+04
-2.272559765625000000e+04
-2.272557031250000000e+04
-2.272557421875000000e+04
-2.272579296875000000e+04
-2.272588671875000000e+04
-2.272607617187500000e+04
-2.272612304687500000e+04
-2.272627734375000000e+04
-2.272668554687500000e+04
-2.272708593750000000e+04
-2.272719921875000000e+04
-2.272731250000000000e+04
-2.272840234375000000e+04
-2.272858593750000000e+04
-2.272877343750000000e+04
-2.272913085937500000e+04
-2.272960742187500000e+04
-2.272996289062500000e+04
-2.273003320312500000e+04
-2.272991210937500000e+04
-2.272819531250000000e+04
-2.272806250000000000e+04
-2.272793945312500000e+04
-2.272756835937500000e+04
-2.272744140625000000e+04
-2.272733789062500000e+04
-2.272734765625000000e+04
-2.272739843750000000e+04
-2.272744335937500000e+04
-2.272749218750000000e+04
-2.272713085937500000e+04
-2.272636523437500000e+04
-2.272480859375000000e+04
-2.272461132812500000e+04
-2.272415039062500000e+04
-2.272428710937500000e+04
-2.272478710937500000e+04
-2.272612304687500000e+04
-2.272719140625000000e+04
-2.272727343750000000e+04
-2.272728710937500000e+04
-2.273039257812500000e+04
-2.273084570312500000e+04
-2.273205859375000000e+04
-2.273216992187500000e+04
-2.273249609375000000e+04
-2.273229687500000000e+04
-2.273227343750000000e+04
-2.273224023437500000e+04
-2.273223437500000000e+04
-2.273287109375000000e+04
-2.273279687500000000e+04
-2.273273828125000000e+04
-2.273247070312500000e+04
-2.273108789062500000e+04
-2.273018554687500000e+04
-2.272975000000000000e+04
-2.272888476562500000e+04
-2.272877343750000000e+04
-2.272855859375000000e+04
-2.272928515625000000e+04
-2.272930859375000000e+04
-2.272929687500000000e+04
-2.272910156250000000e+04
-2.272883789062500000e+04
-2.272863671875000000e+04
-2.272804687500000000e+04
-2.272737500000000000e+04
-2.272740039062500000e+04
-2.272745507812500000e+04
-2.272745312500000000e+04
-2.272758789062500000e+04
-2.272761132812500000e+04
-2.272763476562500000e+04
-2.272778710937500000e+04
-2.272755664062500000e+04
-2.272699609375000000e+04
-2.272686328125000000e+04
-2.272649023437500000e+04
-2.272664453125000000e+04
-2.273065820312500000e+04
-2.273083593750000000e+04
-2.273113476562500000e+04
-2.273126953125000000e+04
-2.273151171875000000e+04
-2.273223046875000000e+04
-2.273231445312500000e+04
-2.273257617187500000e+04
-2.273271875000000000e+04
-2.273275976562500000e+04
-2.273253710937500000e+04
-2.273235937500000000e+04
-2.273182421875000000e+04
-2.273074023437500000e+04
-2.273054101562500000e+04
-2.272984570312500000e+04
-2.272975195312500000e+04
-2.273119335937500000e+04
-2.273148242187500000e+04
-2.273157617187500000e+04
-2.272853710937500000e+04
-2.272924023437500000e+04
-2.273155273437500000e+04
-2.273196679687500000e+04
-2.273302343750000000e+04
-2.273317773437500000e+04
-2.273350000000000000e+04
-2.273478125000000000e+04
-2.273500976562500000e+04
-2.273504687500000000e+04
-2.273437890625000000e+04
-2.273292578125000000e+04
-2.273168359375000000e+04
-2.273151757812500000e+04
-2.273096093750000000e+04
-2.273054492187500000e+04
-2.272965429687500000e+04
-2.272804492187500000e+04
-2.272800976562500000e+04
-2.272751757812500000e+04
-2.272751757812500000e+04
-2.272784765625000000e+04
-2.272792187500000000e+04
-2.272832226562500000e+04
-2.272904687500000000e+04
-2.272970507812500000e+04
-2.273017968750000000e+04
-2.273230078125000000e+04
-2.273301171875000000e+04
-2.273351171875000000e+04
-2.273336328125000000e+04
-2.273328125000000000e+04
-2.273298242187500000e+04
-2.273286523437500000e+04
-2.273179492187500000e+04
-2.273014648437500000e+04
-2.272974804687500000e+04
-2.272944140625000000e+04
-2.272914843750000000e+04
-2.272881250000000000e+04
-2.272861523437500000e+04
-2.272856640625000000e+04
-2.272855859375000000e+04
-2.272855468750000000e+04
-2.272855859375000000e+04
-2.272856054687500000e+04
-2.272629882812500000e+04
-2.272535351562500000e+04
-2.272519726562500000e+04
-2.272474023437500000e+04
-2.272477343750000000e+04
-2.272513085937500000e+04
-2.272544335937500000e+04
-2.272615625000000000e+04
-2.272631445312500000e+04
-2.272644531250000000e+04
-2.272649804687500000e+04
-2.272648828125000000e+04
-2.272647851562500000e+04
-2.272645312500000000e+04
-2.272643359375000000e+04
-2.272638671875000000e+04
-2.272626562500000000e+04
-2.272596484375000000e+04
-2.272590039062500000e+04
-2.272582421875000000e+04
-2.272574218750000000e+04
-2.272564453125000000e+04
-2.272501757812500000e+04
-2.272468164062500000e+04
-2.272161718750000000e+04
-2.272157226562500000e+04
-2.272173632812500000e+04
-2.272185351562500000e+04
-2.272213671875000000e+04
-2.272250000000000000e+04
-2.272269335937500000e+04
-2.272341601562500000e+04
-2.272433984375000000e+04
-2.272478906250000000e+04
-2.272519140625000000e+04
-2.272822460937500000e+04
-2.272851757812500000e+04
-2.272880664062500000e+04
-2.273082617187500000e+04
-2.273101562500000000e+04
-2.273149804687500000e+04
-2.273145312500000000e+04
-2.273137500000000000e+04
-2.272905664062500000e+04
-2.272670117187500000e+04
-2.272719921875000000e+04
-2.272815820312500000e+04
-2.273037109375000000e+04
-2.273042187500000000e+04
-2.273035351562500000e+04
-2.273033984375000000e+04
-2.273016015625000000e+04
-2.272758203125000000e+04
-2.272726562500000000e+04
-2.272776171875000000e+04
-2.272970898437500000e+04
-2.272977343750000000e+04
-2.272981640625000000e+04
-2.272955078125000000e+04
-2.272943750000000000e+04
-2.272860156250000000e+04
-2.272834375000000000e+04
-2.272807812500000000e+04
-2.272808789062500000e+04
-2.272902734375000000e+04
-2.272951171875000000e+04
-2.273054101562500000e+04
-2.273112500000000000e+04
-2.273148242187500000e+04
-2.273043945312500000e+04
-2.273026171875000000e+04
-2.272960937500000000e+04
-2.272948242187500000e+04
-2.272929687500000000e+04
-2.272919140625000000e+04
-2.272989453125000000e+04
-2.273065820312500000e+04
-2.273152343750000000e+04
-2.273196289062500000e+04
-2.273257617187500000e+04
-2.273329296875000000e+04
-2.273393359375000000e+04
-2.273408398437500000e+04
-2.273413281250000000e+04
-2.273352148437500000e+04
-2.273369921875000000e+04
-2.273379101562500000e+04
-2.273390625000000000e+04
-2.273402929687500000e+04
-2.273415820312500000e+04
-2.273470117187500000e+04
-2.273418359375000000e+04
-2.273331445312500000e+04
-2.273197070312500000e+04
-2.273305273437500000e+04
-2.273324218750000000e+04
-2.273333398437500000e+04
-2.273320312500000000e+04
-2.273286914062500000e+04
-2.273276367187500000e+04
-2.273243359375000000e+04
-2.273178320312500000e+04
-2.273164648437500000e+04
-2.273156640625000000e+04
-2.273155859375000000e+04
-2.273163867187500000e+04
-2.273174609375000000e+04
-2.273196289062500000e+04
-2.273221484375000000e+04
-2.273245898437500000e+04
-2.273271875000000000e+04
-2.273309960937500000e+04
-2.273367382812500000e+04
-2.273486718750000000e+04
-2.273485546875000000e+04
-2.273472656250000000e+04
-2.273433593750000000e+04
-2.273402734375000000e+04
-2.273391796875000000e+04
-2.273334765625000000e+04
-2.273319531250000000e+04
-2.273300585937500000e+04
-2.273302539062500000e+04
-2.273315820312500000e+04
-2.273328906250000000e+04
-2.273336132812500000e+04
-2.273337890625000000e+04
-2.273262695312500000e+04
-2.273196093750000000e+04
-2.272976171875000000e+04
-2.272939062500000000e+04
-2.272874414062500000e+04
-2.272859765625000000e+04
-2.272821484375000000e+04
-2.272810546875000000e+04
-2.272757226562500000e+04
-2.272775781250000000e+04
-2.272788867187500000e+04
-2.272826367187500000e+04
-2.272847851562500000e+04
-2.272859375000000000e+04
-2.272915429687500000e+04
-2.272926562500000000e+04
-2.272969335937500000e+04
-2.273014453125000000e+04
-2.273094531250000000e+04
-2.273097070312500000e+04
-2.273091406250000000e+04
-2.273021875000000000e+04
-2.272978515625000000e+04
-2.272972265625000000e+04
-2.272967968750000000e+04
-2.272962890625000000e+04
-2.273010156250000000e+04
-2.273013671875000000e+04
-2.273031640625000000e+04
-2.273033007812500000e+04
-2.273034765625000000e+04
-2.272997265625000000e+04
-2.272962304687500000e+04
-2.272868750000000000e+04
-2.272853710937500000e+04
-2.272828515625000000e+04
-2.272844140625000000e+04
-2.272855468750000000e+04
-2.272921484375000000e+04
-2.272969921875000000e+04
-2.272988671875000000e+04
-2.273111328125000000e+04
-2.273386523437500000e+04
-2.273337109375000000e+04
-2.273274609375000000e+04
-2.272979101562500000e+04
-2.272659960937500000e+04
-2.272585351562500000e+04
-2.272552734375000000e+04
-2.272497265625000000e+04
-2.272474218750000000e+04
-2.272373632812500000e+04
-2.272366406250000000e+04
-2.272401953125000000e+04
-2.272465039062500000e+04
-2.272533789062500000e+04
-2.272572460937500000e+04
-2.272632226562500000e+04
-2.272768554687500000e+04
-2.272793164062500000e+04
-2.272809765625000000e+04
-2.272757617187500000e+04
-2.272740234375000000e+04
-2.272704882812500000e+04
-2.272665429687500000e+04
-2.272587109375000000e+04
-2.272501757812500000e+04
-2.272450976562500000e+04
-2.272412109375000000e+04
-2.272423632812500000e+04
-2.272452929687500000e+04
-2.272434570312500000e+04
-2.272428125000000000e+04
-2.272429687500000000e+04
-2.272449414062500000e+04
-2.272459179687500000e+04
-2.272530859375000000e+04
-2.272522265625000000e+04
-2.272501757812500000e+04
-2.272488476562500000e+04
-2.272476953125000000e+04
-2.272464648437500000e+04
-2.272425781250000000e+04
-2.272388671875000000e+04
-2.272383007812500000e+04
-2.272458007812500000e+04
-2.272487304687500000e+04
-2.272497460937500000e+04
-2.272508398437500000e+04
-2.272530468750000000e+04
-2.272638476562500000e+04
-2.272658203125000000e+04
-2.272698632812500000e+04
-2.272755273437500000e+04
-2.272798242187500000e+04
-2.272817578125000000e+04
-2.272803125000000000e+04
-2.272774218750000000e+04
-2.272741015625000000e+04
-2.272730273437500000e+04
-2.272720507812500000e+04
-2.272676367187500000e+04
-2.272641601562500000e+04
-2.272619921875000000e+04
-2.272665625000000000e+04
-2.272711523437500000e+04
-2.272838085937500000e+04
-2.272952734375000000e+04
-2.273028906250000000e+04
-2.272979492187500000e+04
-2.272882421875000000e+04
-2.272849804687500000e+04
-2.272907226562500000e+04
-2.272939062500000000e+04
-2.272954101562500000e+04
-2.272996093750000000e+04
-2.273056250000000000e+04
-2.273053710937500000e+04
-2.273005078125000000e+04
-2.272951171875000000e+04
-2.272918359375000000e+04
-2.272905078125000000e+04
-2.272916992187500000e+04
-2.272919921875000000e+04
-2.272917968750000000e+04
-2.272909375000000000e+04
-2.272903710937500000e+04
-2.272912500000000000e+04
-2.272954882812500000e+04
-2.272976367187500000e+04
-2.272982617187500000e+04
-2.272944335937500000e+04
-2.272726757812500000e+04
-2.272683203125000000e+04
-2.272566601562500000e+04
-2.272525390625000000e+04
-2.272533789062500000e+04
-2.272502148437500000e+04
-2.272540429687500000e+04
-2.272593750000000000e+04
-2.272607421875000000e+04
-2.272618750000000000e+04
-2.272636914062500000e+04
-2.272706250000000000e+04
-2.272733398437500000e+04
-2.272765820312500000e+04
-2.272777539062500000e+04
-2.272783203125000000e+04
-2.272783593750000000e+04
-2.272784570312500000e+04
-2.272783203125000000e+04
-2.272766015625000000e+04
-2.272764453125000000e+04
-2.272769726562500000e+04
-2.272747265625000000e+04
-2.272685546875000000e+04
-2.272636718750000000e+04
-2.272625585937500000e+04
-2.272590039062500000e+04
-2.272570507812500000e+04
-2.272567187500000000e+04
-2.272560742187500000e+04
-2.272531640625000000e+04
-2.272526367187500000e+04
-2.272512304687500000e+04
-2.272505859375000000e+04
-2.272489843750000000e+04
-2.272483984375000000e+04
-2.272479101562500000e+04
-2.272475000000000000e+04
-2.272473242187500000e+04
-2.272468554687500000e+04
-2.272461132812500000e+04
-2.272452343750000000e+04
-2.272446875000000000e+04
-2.272422656250000000e+04
-2.272399218750000000e+04
-2.272407031250000000e+04
-2.272415625000000000e+04
-2.272486718750000000e+04
-2.272641406250000000e+04
-2.272664257812500000e+04
-2.272656445312500000e+04
-2.272549023437500000e+04
-2.272511328125000000e+04
-2.272529492187500000e+04
-2.272541992187500000e+04
-2.272718750000000000e+04
-2.272740820312500000e+04
-2.272755273437500000e+04
-2.272707812500000000e+04
-2.272557812500000000e+04
-2.272497265625000000e+04
-2.272412500000000000e+04
-2.272363671875000000e+04
-2.272297656250000000e+04
-2.272251171875000000e+04
-2.272207421875000000e+04
-2.272250195312500000e+04
-2.272391601562500000e+04
-2.272406835937500000e+04
-2.272389843750000000e+04
-2.272355859375000000e+04
-2.272340625000000000e+04
-2.272218945312500000e+04
-2.272188476562500000e+04
-2.272183398437500000e+04
-2.272186328125000000e+04
-2.272319531250000000e+04
-2.272349218750000000e+04
-2.272397070312500000e+04
-2.272424414062500000e+04
-2.272446093750000000e+04
-2.272456835937500000e+04
-2.272465039062500000e+04
-2.272463671875000000e+04
-2.272445507812500000e+04
-2.272417773437500000e+04
-2.272382031250000000e+04
-2.272283398437500000e+04
-2.272233007812500000e+04
-2.272238085937500000e+04
-2.272326171875000000e+04
-2.272371289062500000e+04
-2.272392187500000000e+04
-2.272387695312500000e+04
-2.272372656250000000e+04
-2.272312890625000000e+04
-2.272259179687500000e+04
-2.272208203125000000e+04
-2.272207421875000000e+04
-2.272223828125000000e+04
-2.272351367187500000e+04
-2.272381640625000000e+04
-2.272451171875000000e+04
-2.272623242187500000e+04
-2.272726171875000000e+04
-2.272782812500000000e+04
-2.272775195312500000e+04
-2.272716601562500000e+04
-2.272694140625000000e+04
-2.272780273437500000e+04
-2.272888671875000000e+04
-2.272890429687500000e+04
-2.272890820312500000e+04
-2.272856054687500000e+04
-2.272845117187500000e+04
-2.272833398437500000e+04
-2.272843164062500000e+04
-2.272847070312500000e+04
-2.272852148437500000e+04
-2.272875585937500000e+04
-2.272880664062500000e+04
-2.272898828125000000e+04
-2.272908593750000000e+04
-2.272913085937500000e+04
-2.272910351562500000e+04
-2.272898437500000000e+04
-2.272888281250000000e+04
-2.272882226562500000e+04
-2.272880859375000000e+04
-2.272975000000000000e+04
-2.273072460937500000e+04
-2.273135156250000000e+04
-2.273143945312500000e+04
-2.273152148437500000e+04
-2.273156640625000000e+04
-2.273142578125000000e+04
-2.273141601562500000e+04
-2.273230078125000000e+04
-2.273307421875000000e+04
-2.273359960937500000e+04
-2.273358984375000000e+04
-2.273356054687500000e+04
-2.273316210937500000e+04
-2.273216406250000000e+04
-2.273007812500000000e+04
-2.272903320312500000e+04
-2.272846679687500000e+04
-2.272820312500000000e+04
-2.272810937500000000e+04
-2.272821679687500000e+04
-2.272911718750000000e+04
-2.273056640625000000e+04
-2.273097656250000000e+04
-2.273104101562500000e+04
-2.273057617187500000e+04
-2.273013085937500000e+04
-2.272995312500000000e+04
-2.272989843750000000e+04
-2.273030859375000000e+04
-2.273031250000000000e+04
-2.273012890625000000e+04
-2.273007421875000000e+04
-2.273000585937500000e+04
-2.272848242187500000e+04
-2.272838476562500000e+04
-2.272841406250000000e+04
-2.272848437500000000e+04
-2.272844140625000000e+04
-2.272839648437500000e+04
-2.272803906250000000e+04
-2.272792773437500000e+04
-2.272790234375000000e+04
-2.272800390625000000e+04
-2.272806250000000000e+04
-2.272818554687500000e+04
-2.272814062500000000e+04
-2.272808789062500000e+04
-2.272786718750000000e+04
-2.272715625000000000e+04
-2.272653710937500000e+04
-2.272536132812500000e+04
-2.272495117187500000e+04
-2.272483984375000000e+04
-2.272461523437500000e+04
-2.272458789062500000e+04
-2.272545507812500000e+04
-2.272571093750000000e+04
-2.272584570312500000e+04
-2.272639648437500000e+04
-2.272664648437500000e+04
-2.272666796875000000e+04
-2.272672070312500000e+04
-2.272697070312500000e+04
-2.272702734375000000e+04
-2.272711132812500000e+04
-2.272717773437500000e+04
-2.272695507812500000e+04
-2.272616015625000000e+04
-2.272579101562500000e+04
-2.272526953125000000e+04
-2.272513281250000000e+04
-2.272541406250000000e+04
-2.272588085937500000e+04
-2.272620703125000000e+04
-2.272637109375000000e+04
-2.272653710937500000e+04
-2.272686523437500000e+04
-2.272702343750000000e+04
-2.272718164062500000e+04
-2.272732421875000000e+04
-2.272746093750000000e+04
-2.272759375000000000e+04
-2.272805859375000000e+04
-2.272910742187500000e+04
-2.272971093750000000e+04
-2.272979492187500000e+04
-2.272987890625000000e+04
-2.273013671875000000e+04
-2.273043554687500000e+04
-2.273168164062500000e+04
-2.273213867187500000e+04
-2.273253125000000000e+04
-2.273254882812500000e+04
-2.273245703125000000e+04
-2.273237695312500000e+04
-2.273169335937500000e+04
-2.273149414062500000e+04
-2.273150781250000000e+04
-2.273151367187500000e+04
-2.273153906250000000e+04
-2.273155664062500000e+04
-2.273153906250000000e+04
-2.273149414062500000e+04
-2.273118164062500000e+04
-2.273054101562500000e+04
-2.273029492187500000e+04
-2.272962109375000000e+04
-2.272935351562500000e+04
-2.272862695312500000e+04
-2.272773632812500000e+04
-2.272764257812500000e+04
-2.272785546875000000e+04
-2.272810351562500000e+04
-2.272890429687500000e+04
-2.272912304687500000e+04
-2.272923046875000000e+04
-2.272931445312500000e+04
-2.272932031250000000e+04
-2.272923437500000000e+04
-2.272903515625000000e+04
-2.272858789062500000e+04
-2.272805859375000000e+04
-2.272763085937500000e+04
-2.272710546875000000e+04
-2.272692382812500000e+04
-2.272651171875000000e+04
-2.272530273437500000e+04
-2.272575390625000000e+04
-2.272616406250000000e+04
-2.272840820312500000e+04
-2.272895507812500000e+04
-2.272988281250000000e+04
-2.273021484375000000e+04
-2.273081250000000000e+04
-2.273109179687500000e+04
-2.273152929687500000e+04
-2.273154687500000000e+04
-2.273047265625000000e+04
-2.272837109375000000e+04
-2.272830078125000000e+04
-2.272824804687500000e+04
-2.272814062500000000e+04
-2.272835546875000000e+04
-2.272839257812500000e+04
-2.272841796875000000e+04
-2.272833007812500000e+04
-2.272755273437500000e+04
-2.272763281250000000e+04
-2.272783984375000000e+04
-2.272866015625000000e+04
-2.272903710937500000e+04
-2.272950585937500000e+04
-2.272997070312500000e+04
-2.273003125000000000e+04
-2.272998242187500000e+04
-2.272987890625000000e+04
-2.272946875000000000e+04
-2.272899414062500000e+04
-2.272862695312500000e+04
-2.272869921875000000e+04
-2.272871875000000000e+04
-2.272880664062500000e+04
-2.272901562500000000e+04
-2.272899804687500000e+04
-2.272913671875000000e+04
-2.272928125000000000e+04
-2.272977734375000000e+04
-2.272985546875000000e+04
-2.273051562500000000e+04
-2.273104101562500000e+04
-2.273109765625000000e+04
-2.273092578125000000e+04
-2.273076367187500000e+04
-2.273006054687500000e+04
-2.272999023437500000e+04
-2.272942578125000000e+04
-2.272917773437500000e+04
-2.272907617187500000e+04
-2.272897656250000000e+04
-2.272863476562500000e+04
-2.272840820312500000e+04
-2.272786132812500000e+04
-2.272759179687500000e+04
-2.272749804687500000e+04
-2.272745117187500000e+04
-2.272741992187500000e+04
-2.272731445312500000e+04
-2.272727148437500000e+04
-2.272723046875000000e+04
-2.272719531250000000e+04
-2.272716601562500000e+04
-2.272712500000000000e+04
-2.272710742187500000e+04
-2.272715429687500000e+04
-2.272737500000000000e+04
-2.272802148437500000e+04
-2.272859765625000000e+04
-2.272886328125000000e+04
-2.272899609375000000e+04
-2.272904492187500000e+04
-2.272908203125000000e+04
-2.272871484375000000e+04
-2.272832031250000000e+04
-2.272809765625000000e+04
-2.272748242187500000e+04
