7.481970787048339844e+00 -1.955424696207046509e-01 -3.542940616607666016e-01 -1.955424696207046509e-01 7.001153469085693359e+00 8.310578414238989353e-04 -3.542940616607666016e-01 8.310578414238989353e-04 9.291680335998535156e+00
1.416881942749023438e+01 5.846521854400634766e-01 1.020940661430358887e+00 5.846521854400634766e-01 1.355493640899658203e+01 -1.589675307273864746e+00 1.020940661430358887e+00 -1.589675307273864746e+00 1.969927406311035156e+01
1.641756820678710938e+01 3.337057530879974365e-01 1.518828272819519043e+00 3.337057530879974365e-01 1.623572349548339844e+01 -1.386530756950378418e+00 1.518828272819519043e+00 -1.386530756950378418e+00 2.177900123596191406e+01
2.232717514038085938e+01 -9.629618376493453979e-02 3.565640687942504883e+00 -9.629618376493453979e-02 2.182674789428710938e+01 -4.767655432224273682e-01 3.565640687942504883e+00 -4.767655432224273682e-01 2.781104850769042969e+01
2.814898300170898438e+01 2.912642657756805420e-01 5.808985710144042969e+00 2.912642657756805420e-01 2.750400733947753906e+01 -7.229021191596984863e-01 5.808985710144042969e+00 -7.229021191596984863e-01 3.564599990844726562e+01
2.090588188171386719e+01 2.029962301254272461e+00 4.904652118682861328e+00 2.029962301254272461e+00 2.526136398315429688e+01 -2.587427794933319092e-01 4.904652118682861328e+00 -2.587427794933319092e-01 5.417060470581054688e+01
1.406377792358398438e+01 1.569304585456848145e+00 1.374459624290466309e+00 1.569304585456848145e+00 1.887141418457031250e+01 3.491604030132293701e-01 1.374459624290466309e+00 3.491604030132293701e-01 5.352991867065429688e+01
8.139604568481445312e+00 1.010783553123474121e+00 -1.715250372886657715e+00 1.010783553123474121e+00 1.250688648223876953e+01 1.004083871841430664e+00 -1.715250372886657715e+00 1.004083871841430664e+00 5.111154556274414062e+01
6.718285560607910156e+00 9.821701645851135254e-01 -2.436045169830322266e+00 9.821701645851135254e-01 1.108739566802978516e+01 1.160794734954833984e+00 -2.436045169830322266e+00 1.160794734954833984e+00 4.981763839721679688e+01
3.142476081848144531e+00 1.260960459709167480e+00 -4.268923759460449219e+00 1.260960459709167480e+00 6.973476886749267578e+00 1.265569567680358887e+00 -4.268923759460449219e+00 1.265569567680358887e+00 4.732175064086914062e+01
1.860790967941284180e+00 1.687159061431884766e+00 -4.999355316162109375e+00 1.687159061431884766e+00 6.109126091003417969e+00 8.809893131256103516e-01 -4.999355316162109375e+00 8.809893131256103516e-01 4.668679809570312500e+01
1.516618967056274414e+00 1.629725813865661621e+00 -5.299327373504638672e+00 1.629725813865661621e+00 5.735164165496826172e+00 9.699703454971313477e-01 -5.299327373504638672e+00 9.699703454971313477e-01 4.617679977416992188e+01
9.302689433097839355e-01 2.104392290115356445e+00 -6.127035140991210938e+00 2.104392290115356445e+00 3.976957082748413086e+00 1.065356612205505371e+00 -6.127035140991210938e+00 1.065356612205505371e+00 4.397948074340820312e+01
1.741738915443420410e+00 2.873396873474121094e+00 -6.968303203582763672e+00 2.873396873474121094e+00 4.577053070068359375e+00 -1.536605060100555420e-01 -6.968303203582763672e+00 -1.536605060100555420e-01 4.268616867065429688e+01
2.647858381271362305e+00 3.280694723129272461e+00 -7.314267635345458984e+00 3.280694723129272461e+00 5.818720817565917969e+00 -1.172885894775390625e+00 -7.314267635345458984e+00 -1.172885894775390625e+00 4.295487976074218750e+01
8.757021903991699219e+00 3.994984865188598633e+00 -6.637718200683593750e+00 3.994984865188598633e+00 1.138867855072021484e+01 -3.826818704605102539e+00 -6.637718200683593750e+00 -3.826818704605102539e+00 4.673686599731445312e+01
2.977008438110351562e+01 4.967963218688964844e+00 -3.361863136291503906e+00 4.967963218688964844e+00 2.816602897644042969e+01 -6.492434024810791016e+00 -3.361863136291503906e+00 -6.492434024810791016e+00 6.322615051269531250e+01
3.269021987915039062e+01 4.964034557342529297e+00 -2.818883895874023438e+00 4.964034557342529297e+00 3.043062973022460938e+01 -6.189197063446044922e+00 -2.818883895874023438e+00 -6.189197063446044922e+00 6.336454772949218750e+01
4.490685653686523438e+01 3.313578844070434570e+00 2.291888296604156494e-01 3.313578844070434570e+00 3.999376296997070312e+01 -3.300367116928100586e+00 2.291888296604156494e-01 -3.300367116928100586e+00 6.115889358520507812e+01
5.501493453979492188e+01 8.526707291603088379e-01 3.829574584960937500e+00 8.526707291603088379e-01 4.757831573486328125e+01 -2.450720369815826416e-01 3.829574584960937500e+00 -2.450720369815826416e-01 5.938409805297851562e+01
5.818908309936523438e+01 -8.783368021249771118e-02 5.260209083557128906e+00 -8.783368021249771118e-02 4.997703170776367188e+01 7.256116271018981934e-01 5.260209083557128906e+00 7.256116271018981934e-01 5.909212112426757812e+01
6.147838211059570312e+01 -1.049379825592041016e+00 6.756210803985595703e+00 -1.049379825592041016e+00 5.224449539184570312e+01 1.731544852256774902e+00 6.756210803985595703e+00 1.731544852256774902e+00 5.896140289306640625e+01
6.611233520507812500e+01 -2.311446666717529297e+00 9.092125892639160156e+00 -2.311446666717529297e+00 5.535369873046875000e+01 3.123801946640014648e+00 9.092125892639160156e+00 3.123801946640014648e+00 5.899842834472656250e+01
6.865428161621093750e+01 -2.968950748443603516e+00 1.057062339782714844e+01 -2.968950748443603516e+00 5.732648468017578125e+01 3.887495517730712891e+00 1.057062339782714844e+01 3.887495517730712891e+00 5.918870925903320312e+01
6.989968872070312500e+01 -3.312810897827148438e+00 1.134215450286865234e+01 -3.312810897827148438e+00 5.825620269775390625e+01 4.195936679840087891e+00 1.134215450286865234e+01 4.195936679840087891e+00 5.934884643554687500e+01
7.093592071533203125e+01 -3.609530925750732422e+00 1.206121540069580078e+01 -3.609530925750732422e+00 5.903996276855468750e+01 4.501274108886718750e+00 1.206121540069580078e+01 4.501274108886718750e+00 5.950312805175781250e+01
7.187625122070312500e+01 -3.831250190734863281e+00 1.277790260314941406e+01 -3.831250190734863281e+00 5.982443618774414062e+01 4.781823635101318359e+00 1.277790260314941406e+01 4.781823635101318359e+00 5.963328552246093750e+01
7.266647338867187500e+01 -3.946609973907470703e+00 1.338907623291015625e+01 -3.946609973907470703e+00 6.060526657104492188e+01 5.037448406219482422e+00 1.338907623291015625e+01 5.037448406219482422e+00 5.969879150390625000e+01
7.357822418212890625e+01 -2.368522405624389648e+00 1.679501914978027344e+01 -2.368522405624389648e+00 6.561913299560546875e+01 4.324980258941650391e+00 1.679501914978027344e+01 4.324980258941650391e+00 6.170584869384765625e+01
6.706989288330078125e+01 1.229186534881591797e+00 1.539299774169921875e+01 1.229186534881591797e+00 6.633560180664062500e+01 8.657963275909423828e-01 1.539299774169921875e+01 8.657963275909423828e-01 6.280007171630859375e+01
6.041981124877929688e+01 4.305195808410644531e+00 1.314507389068603516e+01 4.305195808410644531e+00 6.594772338867187500e+01 -2.378688335418701172e+00 1.314507389068603516e+01 -2.378688335418701172e+00 6.383185577392578125e+01
5.759296417236328125e+01 5.370737552642822266e+00 1.220050621032714844e+01 5.370737552642822266e+00 6.559289550781250000e+01 -3.568188905715942383e+00 1.220050621032714844e+01 -3.568188905715942383e+00 6.399998855590820312e+01
4.302096557617187500e+01 4.505474567413330078e+00 8.724693298339843750e+00 4.505474567413330078e+00 4.986260604858398438e+01 -7.177829742431640625e+00 8.724693298339843750e+00 -7.177829742431640625e+00 6.720815277099609375e+01
5.215508651733398438e+01 4.242973327636718750e+00 6.428225994110107422e+00 4.242973327636718750e+00 4.286349105834960938e+01 -3.867594957351684570e+00 6.428225994110107422e+00 -3.867594957351684570e+00 6.335475540161132812e+01
5.251189422607421875e+01 4.421405315399169922e+00 6.192658424377441406e+00 4.421405315399169922e+00 4.234170913696289062e+01 -3.678879261016845703e+00 6.192658424377441406e+00 -3.678879261016845703e+00 6.290829849243164062e+01
5.381248092651367188e+01 6.190039157867431641e+00 3.878176689147949219e+00 6.190039157867431641e+00 3.905887985229492188e+01 -3.195686578750610352e+00 3.878176689147949219e+00 -3.195686578750610352e+00 6.056359100341796875e+01
5.385083007812500000e+01 6.842388153076171875e+00 3.153972387313842773e+00 6.842388153076171875e+00 3.813195037841796875e+01 -3.217223882675170898e+00 3.153972387313842773e+00 -3.217223882675170898e+00 6.014188385009765625e+01
5.369073867797851562e+01 7.383766651153564453e+00 2.361504554748535156e+00 7.383766651153564453e+00 3.721185684204101562e+01 -3.314612388610839844e+00 2.361504554748535156e+00 -3.314612388610839844e+00 5.995283889770507812e+01
5.296501922607421875e+01 8.464809417724609375e+00 4.409466683864593506e-01 8.464809417724609375e+00 3.529676437377929688e+01 -3.583733081817626953e+00 4.409466683864593506e-01 -3.583733081817626953e+00 5.994952774047851562e+01
5.247603607177734375e+01 9.161468505859375000e+00 -1.042514801025390625e+00 9.161468505859375000e+00 3.348614501953125000e+01 -3.884958267211914062e+00 -1.042514801025390625e+00 -3.884958267211914062e+00 6.038561630249023438e+01
5.234939956665039062e+01 9.342789649963378906e+00 -1.533589005470275879e+00 9.342789649963378906e+00 3.281394577026367188e+01 -3.973741054534912109e+00 -1.533589005470275879e+00 -3.973741054534912109e+00 6.060464477539062500e+01
5.179482650756835938e+01 9.677071571350097656e+00 -2.981965541839599609e+00 9.677071571350097656e+00 3.082776641845703125e+01 -4.248245716094970703e+00 -2.981965541839599609e+00 -4.248245716094970703e+00 6.156085586547851562e+01
5.031109619140625000e+01 9.175228118896484375e+00 -4.412136077880859375e+00 9.175228118896484375e+00 2.760439682006835938e+01 -4.220938205718994141e+00 -4.412136077880859375e+00 -4.220938205718994141e+00 6.288626098632812500e+01
4.891951370239257812e+01 8.325743675231933594e+00 -4.663744926452636719e+00 8.325743675231933594e+00 2.400042152404785156e+01 -3.783942222595214844e+00 -4.663744926452636719e+00 -3.783942222595214844e+00 6.388322830200195312e+01
4.690235137939453125e+01 6.730093002319335938e+00 -3.487726449966430664e+00 6.730093002319335938e+00 1.985743331909179688e+01 -2.343879222869873047e+00 -3.487726449966430664e+00 -2.343879222869873047e+00 6.452541351318359375e+01
4.652842712402343750e+01 6.342393398284912109e+00 -3.076667070388793945e+00 6.342393398284912109e+00 1.910800361633300781e+01 -1.946651697158813477e+00 -3.076667070388793945e+00 -1.946651697158813477e+00 6.465650939941406250e+01
4.582374954223632812e+01 5.626695632934570312e+00 -2.170473575592041016e+00 5.626695632934570312e+00 1.764318275451660156e+01 -1.113588094711303711e+00 -2.170473575592041016e+00 -1.113588094711303711e+00 6.496580505371093750e+01
4.461712646484375000e+01 4.756656646728515625e+00 -8.952182531356811523e-01 4.756656646728515625e+00 1.541536140441894531e+01 2.811540067195892334e-01 -8.952182531356811523e-01 2.811540067195892334e-01 6.548455047607421875e+01
4.421496200561523438e+01 4.492422580718994141e+00 -5.096952319145202637e-01 4.492422580718994141e+00 1.473016262054443359e+01 7.686131596565246582e-01 -5.096952319145202637e-01 7.686131596565246582e-01 6.571555328369140625e+01
4.339800262451171875e+01 3.893950700759887695e+00 2.140461504459381104e-01 3.893950700759887695e+00 1.348334884643554688e+01 1.798321962356567383e+00 2.140461504459381104e-01 1.798321962356567383e+00 6.627637481689453125e+01
4.293902587890625000e+01 3.579945325851440430e+00 5.526602864265441895e-01 3.579945325851440430e+00 1.303966617584228516e+01 2.320128202438354492e+00 5.526602864265441895e-01 2.320128202438354492e+00 6.644096374511718750e+01
4.072649383544921875e+01 2.190186500549316406e+00 2.031590938568115234e+00 2.190186500549316406e+00 1.180661869049072266e+01 5.052325248718261719e+00 2.031590938568115234e+00 5.052325248718261719e+00 6.706277465820312500e+01
3.987507247924804688e+01 1.864938855171203613e+00 2.355947256088256836e+00 1.864938855171203613e+00 1.149632453918457031e+01 6.179290771484375000e+00 2.355947256088256836e+00 6.179290771484375000e+00 6.719405364990234375e+01
3.772837829589843750e+01 8.115257024765014648e-01 2.866736888885498047e+00 8.115257024765014648e-01 1.097058868408203125e+01 7.747223377227783203e+00 2.866736888885498047e+00 7.747223377227783203e+00 6.694671630859375000e+01
2.881555747985839844e+01 -1.779558658599853516e+00 3.543578147888183594e+00 -1.779558658599853516e+00 9.732965469360351562e+00 1.031455707550048828e+01 3.543578147888183594e+00 1.031455707550048828e+01 6.657815551757812500e+01
2.725068092346191406e+01 -2.217308282852172852e+00 4.081460952758789062e+00 -2.217308282852172852e+00 9.716405868530273438e+00 1.062539482116699219e+01 4.081460952758789062e+00 1.062539482116699219e+01 6.713742828369140625e+01
2.647286033630371094e+01 -2.653294324874877930e+00 4.644029140472412109e+00 -2.653294324874877930e+00 1.104420280456542969e+01 1.122854518890380859e+01 4.644029140472412109e+00 1.122854518890380859e+01 6.857991027832031250e+01
2.843642807006835938e+01 -3.379874944686889648e+00 5.192775726318359375e+00 -3.379874944686889648e+00 1.673131942749023438e+01 1.278537464141845703e+01 5.192775726318359375e+00 1.278537464141845703e+01 7.231693267822265625e+01
3.572158050537109375e+01 -4.057462215423583984e+00 3.685340166091918945e+00 -4.057462215423583984e+00 3.005019187927246094e+01 1.404964256286621094e+01 3.685340166091918945e+00 1.404964256286621094e+01 7.752452850341796875e+01
4.018321609497070312e+01 -3.694510936737060547e+00 1.655760645866394043e+00 -3.694510936737060547e+00 3.800504684448242188e+01 1.325523090362548828e+01 1.655760645866394043e+00 1.325523090362548828e+01 7.930751037597656250e+01
4.461979293823242188e+01 -2.157488822937011719e+00 -1.271193027496337891e+00 -2.157488822937011719e+00 4.680077743530273438e+01 1.112947750091552734e+01 -1.271193027496337891e+00 1.112947750091552734e+01 8.104560089111328125e+01
4.719408416748046875e+01 6.085901856422424316e-01 -3.262864112854003906e+00 6.085901856422424316e-01 5.502605819702148438e+01 9.057568550109863281e+00 -3.262864112854003906e+00 9.057568550109863281e+00 8.266999816894531250e+01
4.736631393432617188e+01 1.154215097427368164e+00 -3.403110742568969727e+00 1.154215097427368164e+00 5.626375961303710938e+01 8.802655220031738281e+00 -3.403110742568969727e+00 8.802655220031738281e+00 8.302720642089843750e+01
4.780550384521484375e+01 2.341261625289916992e+00 -3.543683052062988281e+00 2.341261625289916992e+00 5.863126754760742188e+01 8.379346847534179688e+00 -3.543683052062988281e+00 8.379346847534179688e+00 8.373171234130859375e+01
4.841667175292968750e+01 3.952118158340454102e+00 -3.584886312484741211e+00 3.952118158340454102e+00 6.179933166503906250e+01 7.908009529113769531e+00 -3.584886312484741211e+00 7.908009529113769531e+00 8.506978607177734375e+01
4.914473342895507812e+01 5.403110504150390625e+00 -2.935612916946411133e+00 5.403110504150390625e+00 6.568314361572265625e+01 7.807073116302490234e+00 -2.935612916946411133e+00 7.807073116302490234e+00 8.729379272460937500e+01
4.952659225463867188e+01 5.722050189971923828e+00 -2.726361989974975586e+00 5.722050189971923828e+00 6.667488098144531250e+01 7.823802471160888672e+00 -2.726361989974975586e+00 7.823802471160888672e+00 8.795227813720703125e+01
5.026126098632812500e+01 6.132400512695312500e+00 -2.343198060989379883e+00 6.132400512695312500e+00 6.806657409667968750e+01 7.851073265075683594e+00 -2.343198060989379883e+00 7.851073265075683594e+00 8.936238098144531250e+01
5.121191024780273438e+01 6.513857364654541016e+00 -1.841012239456176758e+00 6.513857364654541016e+00 6.904159545898437500e+01 7.895446300506591797e+00 -1.841012239456176758e+00 7.895446300506591797e+00 9.074361419677734375e+01
5.178492355346679688e+01 6.714768886566162109e+00 -1.675368547439575195e+00 6.714768886566162109e+00 6.964443969726562500e+01 7.870255470275878906e+00 -1.675368547439575195e+00 7.870255470275878906e+00 9.126454162597656250e+01
5.570726013183593750e+01 7.448831081390380859e+00 -5.356273651123046875e-01 7.448831081390380859e+00 7.130234527587890625e+01 7.423683643341064453e+00 -5.356273651123046875e-01 7.423683643341064453e+00 9.379542541503906250e+01
6.316394805908203125e+01 7.762988090515136719e+00 4.566489458084106445e-01 7.762988090515136719e+00 7.323796081542968750e+01 6.424751281738281250e+00 4.566489458084106445e-01 6.424751281738281250e+00 9.422476196289062500e+01
7.323542785644531250e+01 6.506202220916748047e+00 1.640668630599975586e+00 6.506202220916748047e+00 7.263015747070312500e+01 6.606043815612792969e+00 1.640668630599975586e+00 6.606043815612792969e+00 9.420630645751953125e+01
7.505718994140625000e+01 4.227944850921630859e+00 1.812392592430114746e+00 4.227944850921630859e+00 7.093000030517578125e+01 7.646490097045898438e+00 1.812392592430114746e+00 7.646490097045898438e+00 9.491526794433593750e+01
7.552976989746093750e+01 3.303452134132385254e-01 2.284367799758911133e+00 3.303452134132385254e-01 6.679235076904296875e+01 8.849755287170410156e+00 2.284367799758911133e+00 8.849755287170410156e+00 9.656250762939453125e+01
7.531711578369140625e+01 -5.398283600807189941e-01 2.397971391677856445e+00 -5.398283600807189941e-01 6.553893280029296875e+01 9.014167785644531250e+00 2.397971391677856445e+00 9.014167785644531250e+00 9.697374725341796875e+01
7.406961822509765625e+01 -4.971057415008544922e+00 3.377642154693603516e+00 -4.971057415008544922e+00 5.881805419921875000e+01 9.275986671447753906e+00 3.377642154693603516e+00 9.275986671447753906e+00 9.979957580566406250e+01
7.313813018798828125e+01 -8.609238624572753906e+00 4.719915866851806641e+00 -8.609238624572753906e+00 5.195271301269531250e+01 8.464196205139160156e+00 4.719915866851806641e+00 8.464196205139160156e+00 1.036153030395507812e+02
7.270869445800781250e+01 -1.246641540527343750e+01 6.640752792358398438e+00 -1.246641540527343750e+01 4.288386154174804688e+01 4.957977294921875000e+00 6.640752792358398438e+00 4.957977294921875000e+00 1.127987289428710938e+02
7.272754669189453125e+01 -1.254479503631591797e+01 6.731922149658203125e+00 -1.254479503631591797e+01 4.208972167968750000e+01 4.200116634368896484e+00 6.731922149658203125e+00 4.200116634368896484e+00 1.143107147216796875e+02
7.059298706054687500e+01 -1.030558109283447266e+01 4.811755657196044922e+00 -1.030558109283447266e+01 4.581947326660156250e+01 3.191432476043701172e+00 4.811755657196044922e+00 3.191432476043701172e+00 1.147900314331054688e+02
7.047083282470703125e+01 -9.443980216979980469e+00 4.449634552001953125e+00 -9.443980216979980469e+00 4.765651321411132812e+01 3.623920917510986328e+00 4.449634552001953125e+00 3.623920917510986328e+00 1.136742706298828125e+02
7.697566986083984375e+01 -1.638759136199951172e+00 8.280755043029785156e+00 -1.638759136199951172e+00 5.820328903198242188e+01 4.145462989807128906e+00 8.280755043029785156e+00 4.145462989807128906e+00 9.724874877929687500e+01
7.720275878906250000e+01 -1.470892071723937988e+00 8.685177803039550781e+00 -1.470892071723937988e+00 5.762606048583984375e+01 3.749136209487915039e+00 8.685177803039550781e+00 3.749136209487915039e+00 9.667201232910156250e+01
7.740895843505859375e+01 -1.338208675384521484e+00 9.064086914062500000e+00 -1.338208675384521484e+00 5.694783782958984375e+01 3.341673612594604492e+00 9.064086914062500000e+00 3.341673612594604492e+00 9.608943939208984375e+01
7.644042205810546875e+01 1.139651775360107422e+00 1.228341388702392578e+01 1.139651775360107422e+00 4.699991607666015625e+01 -1.381363749504089355e+00 1.228341388702392578e+01 -1.381363749504089355e+00 9.300311279296875000e+01
7.599654388427734375e+01 1.475188136100769043e+00 1.229764938354492188e+01 1.475188136100769043e+00 4.633831787109375000e+01 -1.515467882156372070e+00 1.229764938354492188e+01 -1.515467882156372070e+00 9.308510589599609375e+01
7.191796112060546875e+01 3.652017116546630859e+00 1.216090106964111328e+01 3.652017116546630859e+00 4.312665557861328125e+01 -1.914119005203247070e+00 1.216090106964111328e+01 -1.914119005203247070e+00 9.304193878173828125e+01
6.547764587402343750e+01 6.543264389038085938e+00 1.083562564849853516e+01 6.543264389038085938e+00 4.070640182495117188e+01 -2.406418561935424805e+00 1.083562564849853516e+01 -2.406418561935424805e+00 9.270489501953125000e+01
6.113571548461914062e+01 7.748876571655273438e+00 9.255145072937011719e+00 7.748876571655273438e+00 4.024831390380859375e+01 -1.882577419281005859e+00 9.255145072937011719e+00 -1.882577419281005859e+00 9.170127868652343750e+01
5.151568222045898438e+01 5.034223556518554688e+00 1.892794966697692871e+00 5.034223556518554688e+00 4.207386779785156250e+01 3.201425790786743164e+00 1.892794966697692871e+00 3.201425790786743164e+00 9.033616638183593750e+01
5.115794754028320312e+01 3.841599941253662109e+00 7.329474687576293945e-01 3.841599941253662109e+00 4.297125625610351562e+01 4.441371917724609375e+00 7.329474687576293945e-01 4.441371917724609375e+00 9.046585845947265625e+01
5.132484054565429688e+01 1.450767636299133301e+00 -1.714718580245971680e+00 1.450767636299133301e+00 4.477196884155273438e+01 6.663830280303955078e+00 -1.714718580245971680e+00 6.663830280303955078e+00 9.150325775146484375e+01
5.475081634521484375e+01 -4.213736057281494141e+00 -4.356775283813476562e+00 -4.213736057281494141e+00 5.042349624633789062e+01 8.630962371826171875e+00 -4.356775283813476562e+00 8.630962371826171875e+00 9.172093963623046875e+01
5.505226516723632812e+01 -4.470998287200927734e+00 -4.297503471374511719e+00 -4.470998287200927734e+00 5.083316802978515625e+01 8.310501098632812500e+00 -4.297503471374511719e+00 8.310501098632812500e+00 9.156636047363281250e+01
5.614092254638671875e+01 -4.829619407653808594e+00 -3.741996765136718750e+00 -4.829619407653808594e+00 5.196698760986328125e+01 7.005194664001464844e+00 -3.741996765136718750e+00 7.005194664001464844e+00 9.110313415527343750e+01
5.772920227050781250e+01 -4.527743816375732422e+00 -3.063158988952636719e+00 -4.527743816375732422e+00 5.304717636108398438e+01 5.220254898071289062e+00 -3.063158988952636719e+00 5.220254898071289062e+00 9.014417266845703125e+01
6.026970672607421875e+01 -2.353466749191284180e+00 -3.086042404174804688e+00 -2.353466749191284180e+00 5.462586212158203125e+01 2.280078649520874023e+00 -3.086042404174804688e+00 2.280078649520874023e+00 9.010470581054687500e+01
6.073558807373046875e+01 -1.769725322723388672e+00 -3.106289148330688477e+00 -1.769725322723388672e+00 5.493159866333007812e+01 1.782275319099426270e+00 -3.106289148330688477e+00 1.782275319099426270e+00 8.989830780029296875e+01
6.120664596557617188e+01 -1.092640280723571777e+00 -3.165407180786132812e+00 -1.092640280723571777e+00 5.538171386718750000e+01 1.333824992179870605e+00 -3.165407180786132812e+00 1.333824992179870605e+00 8.979070281982421875e+01
6.291111373901367188e+01 1.175158977508544922e+00 -3.852611303329467773e+00 1.175158977508544922e+00 5.668192672729492188e+01 2.608447968959808350e-01 -3.852611303329467773e+00 2.608447968959808350e-01 8.957062530517578125e+01
6.816698455810546875e+01 7.796204090118408203e+00 -6.129182338714599609e+00 7.796204090118408203e+00 5.896706390380859375e+01 -1.670701980590820312e+00 -6.129182338714599609e+00 -1.670701980590820312e+00 8.865406036376953125e+01
6.871711730957031250e+01 8.677427291870117188e+00 -6.525012493133544922e+00 8.677427291870117188e+00 5.922905349731445312e+01 -1.926320791244506836e+00 -6.525012493133544922e+00 -1.926320791244506836e+00 8.884877014160156250e+01
6.911422729492187500e+01 9.653330802917480469e+00 -6.897845745086669922e+00 9.653330802917480469e+00 5.946658706665039062e+01 -2.075590133666992188e+00 -6.897845745086669922e+00 -2.075590133666992188e+00 8.924584197998046875e+01
6.991013336181640625e+01 1.162141036987304688e+01 -7.752025604248046875e+00 1.162141036987304688e+01 5.996268844604492188e+01 -2.133905887603759766e+00 -7.752025604248046875e+00 -2.133905887603759766e+00 8.930582427978515625e+01
7.119773101806640625e+01 1.291571521759033203e+01 -8.061109542846679688e+00 1.291571521759033203e+01 6.058510971069335938e+01 -2.301936864852905273e+00 -8.061109542846679688e+00 -2.301936864852905273e+00 8.844107818603515625e+01
7.427810668945312500e+01 1.487991428375244141e+01 -7.811875343322753906e+00 1.487991428375244141e+01 6.147856521606445312e+01 -3.049450874328613281e+00 -7.811875343322753906e+00 -3.049450874328613281e+00 8.673771667480468750e+01
7.478386688232421875e+01 1.557206916809082031e+01 -8.166019439697265625e+00 1.557206916809082031e+01 6.162039947509765625e+01 -3.128977775573730469e+00 -8.166019439697265625e+00 -3.128977775573730469e+00 8.664992523193359375e+01
7.662683105468750000e+01 1.760660743713378906e+01 -8.263180732727050781e+00 1.760660743713378906e+01 6.544322967529296875e+01 -4.975287914276123047e+00 -8.263180732727050781e+00 -4.975287914276123047e+00 8.430277252197265625e+01
7.792133331298828125e+01 1.591476249694824219e+01 -8.973202705383300781e+00 1.591476249694824219e+01 6.852365875244140625e+01 -7.192511081695556641e+00 -8.973202705383300781e+00 -7.192511081695556641e+00 8.439527130126953125e+01
7.809001922607421875e+01 1.598089599609375000e+01 -9.283308982849121094e+00 1.598089599609375000e+01 7.040522766113281250e+01 -7.917654991149902344e+00 -9.283308982849121094e+00 -7.917654991149902344e+00 8.439322662353515625e+01
7.937316131591796875e+01 1.372001934051513672e+01 -8.808058738708496094e+00 1.372001934051513672e+01 7.346110534667968750e+01 -8.922752380371093750e+00 -8.808058738708496094e+00 -8.922752380371093750e+00 8.491320037841796875e+01
8.038226318359375000e+01 7.905516624450683594e+00 -2.861164331436157227e+00 7.905516624450683594e+00 7.811823272705078125e+01 -7.439425468444824219e+00 -2.861164331436157227e+00 -7.439425468444824219e+00 8.287985229492187500e+01
8.009951019287109375e+01 7.613155841827392578e+00 -2.113946199417114258e+00 7.613155841827392578e+00 7.870172882080078125e+01 -7.043111801147460938e+00 -2.113946199417114258e+00 -7.043111801147460938e+00 8.271852111816406250e+01
7.978059387207031250e+01 6.849412918090820312e+00 -4.454228878021240234e-01 6.849412918090820312e+00 7.949897766113281250e+01 -6.192522525787353516e+00 -4.454228878021240234e-01 -6.192522525787353516e+00 8.207335662841796875e+01
8.005792236328125000e+01 6.179446220397949219e+00 4.218542277812957764e-01 6.179446220397949219e+00 7.960397338867187500e+01 -5.768363952636718750e+00 4.218542277812957764e-01 -5.768363952636718750e+00 8.126087188720703125e+01
8.109198760986328125e+01 4.497790813446044922e+00 1.767144799232482910e+00 4.497790813446044922e+00 7.955574035644531250e+01 -4.769671916961669922e+00 1.767144799232482910e+00 -4.769671916961669922e+00 7.897966003417968750e+01
8.134166717529296875e+01 4.025299549102783203e+00 2.293574810028076172e+00 4.025299549102783203e+00 7.999185180664062500e+01 -4.490265369415283203e+00 2.293574810028076172e+00 -4.490265369415283203e+00 7.868740844726562500e+01
8.312216949462890625e+01 -3.748078346252441406e-01 6.032240867614746094e+00 -3.748078346252441406e-01 8.029275512695312500e+01 -3.213247537612915039e+00 6.032240867614746094e+00 -3.213247537612915039e+00 7.603080749511718750e+01
8.502398681640625000e+01 -1.466755151748657227e+00 8.223150253295898438e+00 -1.466755151748657227e+00 7.933026885986328125e+01 -2.635316848754882812e+00 8.223150253295898438e+00 -2.635316848754882812e+00 7.452967071533203125e+01
8.572770690917968750e+01 -2.732254743576049805e+00 1.067227745056152344e+01 -2.732254743576049805e+00 7.811464691162109375e+01 -2.425270795822143555e+00 1.067227745056152344e+01 -2.425270795822143555e+00 7.314332580566406250e+01
8.574548339843750000e+01 -2.980184078216552734e+00 1.120200347900390625e+01 -2.980184078216552734e+00 7.765052032470703125e+01 -2.637976646423339844e+00 1.120200347900390625e+01 -2.637976646423339844e+00 7.274862670898437500e+01
8.553539276123046875e+01 -3.148947477340698242e+00 1.181341552734375000e+01 -3.148947477340698242e+00 7.744446563720703125e+01 -2.791162014007568359e+00 1.181341552734375000e+01 -2.791162014007568359e+00 7.238298797607421875e+01
8.554821777343750000e+01 -3.918659925460815430e+00 1.341451549530029297e+01 -3.918659925460815430e+00 7.550611877441406250e+01 -3.606189489364624023e+00 1.341451549530029297e+01 -3.606189489364624023e+00 7.162120819091796875e+01
8.203474426269531250e+01 -4.266832351684570312e+00 1.869351005554199219e+01 -4.266832351684570312e+00 6.795183563232421875e+01 -5.764927864074707031e+00 1.869351005554199219e+01 -5.764927864074707031e+00 7.124069213867187500e+01
8.141439819335937500e+01 -4.303885936737060547e+00 1.923188209533691406e+01 -4.303885936737060547e+00 6.700486755371093750e+01 -5.840245723724365234e+00 1.923188209533691406e+01 -5.840245723724365234e+00 7.156163787841796875e+01
7.920594787597656250e+01 -4.925670146942138672e+00 2.280153274536132812e+01 -4.925670146942138672e+00 6.231997299194335938e+01 -6.932722568511962891e+00 2.280153274536132812e+01 -6.932722568511962891e+00 7.246826171875000000e+01
7.791332244873046875e+01 -5.105957508087158203e+00 2.418362808227539062e+01 -5.105957508087158203e+00 6.019935226440429688e+01 -6.984838962554931641e+00 2.418362808227539062e+01 -6.984838962554931641e+00 7.319971466064453125e+01
7.318300628662109375e+01 -6.110876560211181641e+00 2.733279609680175781e+01 -6.110876560211181641e+00 5.162446975708007812e+01 -7.679393291473388672e+00 2.733279609680175781e+01 -7.679393291473388672e+00 7.390892791748046875e+01
7.049178314208984375e+01 -5.167814731597900391e+00 2.482822799682617188e+01 -5.167814731597900391e+00 4.970834732055664062e+01 -7.678524017333984375e+00 2.482822799682617188e+01 -7.678524017333984375e+00 7.171273040771484375e+01
6.912625122070312500e+01 -4.133287429809570312e+00 2.340928268432617188e+01 -4.133287429809570312e+00 5.048558807373046875e+01 -7.564746856689453125e+00 2.340928268432617188e+01 -7.564746856689453125e+00 7.052516174316406250e+01