-1.241770312500000000e+04
-1.241492480468750000e+04
-1.241409667968750000e+04
-1.241184863281250000e+04
-1.240929882812500000e+04
-1.240630175781250000e+04
-1.240641015625000000e+04
-1.240648730468750000e+04
-1.240649707031250000e+04
-1.240651367187500000e+04
-1.240652050781250000e+04
-1.240652539062500000e+04
-1.240659179687500000e+04
-1.240681640625000000e+04
-1.240699316406250000e+04
-1.240757031250000000e+04
-1.240846484375000000e+04
-1.240850683593750000e+04
-1.240862207031250000e+04
-1.240873535156250000e+04
-1.240879101562500000e+04
-1.240885644531250000e+04
-1.240896875000000000e+04
-1.240904687500000000e+04
-1.240908593750000000e+04
-1.240912402343750000e+04
-1.240916015625000000e+04
-1.240919433593750000e+04
-1.240927441406250000e+04
-1.240896289062500000e+04
-1.240859667968750000e+04
-1.240843554687500000e+04
-1.240780371093750000e+04
-1.240749902343750000e+04
-1.240742089843750000e+04
-1.240674218750000000e+04
-1.240653125000000000e+04
-1.240632226562500000e+04
-1.240592773437500000e+04
-1.240565625000000000e+04
-1.240557031250000000e+04
-1.240532617187500000e+04
-1.240494433593750000e+04
-1.240464941406250000e+04
-1.240428906250000000e+04
-1.240421875000000000e+04
-1.240408105468750000e+04
-1.240388378906250000e+04
-1.240370410156250000e+04
-1.240364843750000000e+04
-1.240341406250000000e+04
-1.240334179687500000e+04
-1.240323730468750000e+04
-1.240316601562500000e+04
-1.240316503906250000e+04
-1.240313574218750000e+04
-1.240295996093750000e+04
-1.240246289062500000e+04
-1.240215429687500000e+04
-1.240194433593750000e+04
-1.240199316406250000e+04
-1.240201953125000000e+04
-1.240207714843750000e+04
-1.240216113281250000e+04
-1.240225000000000000e+04
-1.240226562500000000e+04
-1.240228613281250000e+04
-1.240237695312500000e+04
-1.240276464843750000e+04
-1.240357812500000000e+04
-1.240377832031250000e+04
-1.240380957031250000e+04
-1.240378320312500000e+04
-1.240349121093750000e+04
-1.240153027343750000e+04
-1.240122656250000000e+04
-1.239948828125000000e+04
-1.239923144531250000e+04
-1.239823242187500000e+04
-1.239825195312500000e+04
-1.239827148437500000e+04
-1.239841601562500000e+04
-1.239842285156250000e+04
-1.239864355468750000e+04
-1.239876464843750000e+04
-1.239894726562500000e+04
-1.239893554687500000e+04
-1.239890527343750000e+04
-1.239892968750000000e+04
-1.239893750000000000e+04
-1.239895507812500000e+04
-1.239892675781250000e+04
-1.239869335937500000e+04
-1.239863085937500000e+04
-1.239856250000000000e+04
-1.239833300781250000e+04
-1.239783300781250000e+04
-1.239778417968750000e+04
-1.239774316406250000e+04
-1.239768652343750000e+04
-1.239766308593750000e+04
-1.239769335937500000e+04
-1.239773046875000000e+04
-1.239780859375000000e+04
-1.239768847656250000e+04
-1.239758984375000000e+04
-1.239723730468750000e+04
-1.239637011718750000e+04
-1.239631250000000000e+04
-1.239621191406250000e+04
-1.239616992187500000e+04
-1.239606933593750000e+04
-1.239604394531250000e+04
-1.239595117187500000e+04
-1.239584179687500000e+04
-1.239581738281250000e+04
-1.239579394531250000e+04
-1.239571679687500000e+04
-1.239563574218750000e+04
-1.239566015625000000e+04
-1.239593750000000000e+04
-1.239611523437500000e+04
-1.239749218750000000e+04
-1.239794628906250000e+04
-1.239803417968750000e+04
-1.239814746093750000e+04
-1.239816699218750000e+04
-1.239818652343750000e+04
-1.239828808593750000e+04
-1.239824218750000000e+04
-1.239743066406250000e+04
-1.239736718750000000e+04
-1.239722363281250000e+04
-1.239713085937500000e+04
-1.239711816406250000e+04
-1.239717871093750000e+04
-1.239722558593750000e+04
-1.239721191406250000e+04
-1.239718457031250000e+04
-1.239707812500000000e+04
-1.239695507812500000e+04
-1.239681250000000000e+04
-1.239680078125000000e+04
-1.239679003906250000e+04
-1.239675878906250000e+04
-1.239677246093750000e+04
-1.239701464843750000e+04
-1.239755566406250000e+04
-1.239775390625000000e+04
-1.239807128906250000e+04
-1.239895019531250000e+04
-1.239946679687500000e+04
-1.240018066406250000e+04
-1.240033300781250000e+04
-1.240070117187500000e+04
-1.240078613281250000e+04
-1.240084863281250000e+04
-1.240087402343750000e+04
-1.240079101562500000e+04
-1.240065625000000000e+04
-1.240048339843750000e+04
-1.240030273437500000e+04
-1.240000976562500000e+04
-1.240047265625000000e+04
-1.240082714843750000e+04
-1.240157812500000000e+04
-1.240190429687500000e+04
-1.240228125000000000e+04
-1.240233496093750000e+04
-1.240220019531250000e+04
-1.240113281250000000e+04
-1.240104394531250000e+04
-1.240080175781250000e+04
-1.240061425781250000e+04
-1.240050097656250000e+04
-1.240048242187500000e+04
-1.240085644531250000e+04
-1.240094238281250000e+04
-1.240113085937500000e+04
-1.240277343750000000e+04
-1.240275878906250000e+04
-1.240267089843750000e+04
-1.240153125000000000e+04
-1.240141406250000000e+04
-1.240138769531250000e+04
-1.240116503906250000e+04
-1.240107324218750000e+04
-1.240185937500000000e+04
-1.240196191406250000e+04
-1.240271777343750000e+04
-1.240265136718750000e+04
-1.240216601562500000e+04
-1.240173535156250000e+04
-1.240142382812500000e+04
-1.239967382812500000e+04
-1.239918554687500000e+04
-1.239868359375000000e+04
-1.239950488281250000e+04
-1.239964062500000000e+04
-1.239982519531250000e+04
-1.239940917968750000e+04
-1.239890917968750000e+04
-1.239841601562500000e+04
-1.239810156250000000e+04
-1.239809667968750000e+04
-1.239857617187500000e+04
-1.239930078125000000e+04
-1.239937304687500000e+04
-1.239925976562500000e+04
-1.239922363281250000e+04
-1.239836035156250000e+04
-1.239775000000000000e+04
-1.239761816406250000e+04
-1.239755761718750000e+04
-1.239709082031250000e+04
-1.239699121093750000e+04
-1.239644628906250000e+04
-1.239640332031250000e+04
-1.239616210937500000e+04
-1.239606347656250000e+04
-1.239597460937500000e+04
-1.239595214843750000e+04
-1.239592968750000000e+04
-1.239580273437500000e+04
-1.239565332031250000e+04
-1.239555761718750000e+04
-1.239545996093750000e+04
-1.239520898437500000e+04
-1.239512207031250000e+04
-1.239506835937500000e+04
-1.239470898437500000e+04
-1.239475781250000000e+04
-1.239495410156250000e+04
-1.239632421875000000e+04
-1.239653613281250000e+04
-1.239663378906250000e+04
-1.239713671875000000e+04
-1.239714453125000000e+04
-1.239700000000000000e+04
-1.239687792968750000e+04
-1.239684960937500000e+04
-1.239677246093750000e+04
-1.239670507812500000e+04
-1.239663671875000000e+04
-1.239592285156250000e+04
-1.239568066406250000e+04
-1.239566796875000000e+04
-1.239552734375000000e+04
-1.239550976562500000e+04
-1.239549023437500000e+04
-1.239546972656250000e+04
-1.239528906250000000e+04
-1.239522363281250000e+04
-1.239507910156250000e+04
-1.239504199218750000e+04
-1.239492968750000000e+04
-1.239477148437500000e+04
-1.239476269531250000e+04
-1.239477539062500000e+04
-1.239479394531250000e+04
-1.239521484375000000e+04
-1.239531347656250000e+04
-1.239540527343750000e+04
-1.239554785156250000e+04
-1.239564453125000000e+04
-1.239567382812500000e+04
-1.239567773437500000e+04
-1.239592187500000000e+04
-1.239652539062500000e+04
-1.239656738281250000e+04
-1.239660253906250000e+04
-1.239667578125000000e+04
-1.239665039062500000e+04
-1.239641113281250000e+04
-1.239615722656250000e+04
-1.239573730468750000e+04
-1.239560644531250000e+04
-1.239528222656250000e+04
-1.239504882812500000e+04
-1.239532519531250000e+04
-1.239539160156250000e+04
-1.239700878906250000e+04
-1.239710644531250000e+04
-1.239734472656250000e+04
-1.239754296875000000e+04
-1.239721875000000000e+04
-1.239708691406250000e+04
-1.239704687500000000e+04
-1.239692675781250000e+04
-1.239693652343750000e+04
-1.239691796875000000e+04
-1.239690234375000000e+04
-1.239675781250000000e+04
-1.239618847656250000e+04
-1.239612792968750000e+04
-1.239601464843750000e+04
-1.239591796875000000e+04
-1.239628417968750000e+04
-1.239640136718750000e+04
-1.239645703125000000e+04
-1.239660351562500000e+04
-1.239690917968750000e+04
-1.239731445312500000e+04
-1.239740429687500000e+04
-1.239803515625000000e+04
-1.239905957031250000e+04
-1.239916894531250000e+04
-1.239921875000000000e+04
-1.239940332031250000e+04
-1.239953613281250000e+04
-1.239962695312500000e+04
-1.239992773437500000e+04
-1.240054980468750000e+04
-1.240070117187500000e+04
-1.240051074218750000e+04
-1.240045117187500000e+04
-1.239989160156250000e+04
-1.239980468750000000e+04
-1.239971972656250000e+04
-1.239931054687500000e+04
-1.239942773437500000e+04
-1.239970117187500000e+04
-1.239998925781250000e+04
-1.240006933593750000e+04
-1.239965332031250000e+04
-1.239958398437500000e+04
-1.239943164062500000e+04
-1.239935058593750000e+04
-1.239917773437500000e+04
-1.239819921875000000e+04
-1.239810253906250000e+04
-1.239807128906250000e+04
-1.239862500000000000e+04
-1.239904394531250000e+04
-1.239938378906250000e+04
-1.239946777343750000e+04
-1.239964550781250000e+04
-1.239999902343750000e+04
-1.240004687500000000e+04
-1.240021679687500000e+04
-1.239956152343750000e+04
-1.239864746093750000e+04
-1.239851660156250000e+04
-1.239844921875000000e+04
-1.239924414062500000e+04
-1.239959960937500000e+04
-1.239869824218750000e+04
-1.239839648437500000e+04
-1.239739648437500000e+04
-1.239723144531250000e+04
-1.239691699218750000e+04
-1.239599121093750000e+04
-1.239608496093750000e+04
-1.239613671875000000e+04
-1.239717285156250000e+04
-1.239780468750000000e+04
-1.239803417968750000e+04
-1.239802539062500000e+04
-1.239794042968750000e+04
-1.239783300781250000e+04
-1.239750000000000000e+04
-1.239592871093750000e+04
-1.239578320312500000e+04
-1.239352050781250000e+04
-1.239353906250000000e+04
-1.239422460937500000e+04
-1.239430371093750000e+04
-1.239454882812500000e+04
-1.239462500000000000e+04
-1.239450292968750000e+04
-1.239433007812500000e+04
-1.239277539062500000e+04
-1.239237011718750000e+04
-1.239231054687500000e+04
-1.239229785156250000e+04
-1.239228808593750000e+04
-1.239229296875000000e+04
-1.239252636718750000e+04
-1.239306640625000000e+04
-1.239284570312500000e+04
-1.239268750000000000e+04
-1.239255371093750000e+04
-1.239242968750000000e+04
-1.239240136718750000e+04
-1.239244824218750000e+04
-1.239247070312500000e+04
-1.239249902343750000e+04
-1.239253417968750000e+04
-1.239261523437500000e+04
-1.239198535156250000e+04
-1.239163476562500000e+04
-1.239156542968750000e+04
-1.239120996093750000e+04
-1.239110937500000000e+04
-1.239092382812500000e+04
-1.239084472656250000e+04
-1.239070605468750000e+04
-1.239053906250000000e+04
-1.239016308593750000e+04
-1.239005175781250000e+04
-1.238998925781250000e+04
-1.238985644531250000e+04
-1.238978222656250000e+04
-1.238960351562500000e+04
-1.238917773437500000e+04
-1.238843359375000000e+04
-1.238830273437500000e+04
-1.238817382812500000e+04
-1.238792773437500000e+04
-1.238740722656250000e+04
-1.238725878906250000e+04
-1.238750976562500000e+04
-1.238758496093750000e+04
-1.238820214843750000e+04
-1.238839453125000000e+04
-1.238849121093750000e+04
-1.238888964843750000e+04
-1.238955566406250000e+04
-1.238986718750000000e+04
-1.239004003906250000e+04
-1.239022558593750000e+04
-1.239018457031250000e+04
-1.239014746093750000e+04
-1.238972753906250000e+04
-1.238967382812500000e+04
-1.238940429687500000e+04
-1.238932617187500000e+04
-1.238907519531250000e+04
-1.238884082031250000e+04
-1.238873535156250000e+04
-1.238866503906250000e+04
-1.238889746093750000e+04
-1.238927148437500000e+04
-1.238912207031250000e+04
-1.238904394531250000e+04
-1.238890527343750000e+04
-1.238817285156250000e+04
-1.238826074218750000e+04
-1.238864550781250000e+04
-1.239037109375000000e+04
-1.239068261718750000e+04
-1.239096386718750000e+04
-1.239098144531250000e+04
-1.239082910156250000e+04
-1.239069531250000000e+04
-1.239034863281250000e+04
-1.239025390625000000e+04
-1.238962402343750000e+04
-1.238947949218750000e+04
-1.238924902343750000e+04
-1.238912011718750000e+04
-1.238897753906250000e+04
-1.238906738281250000e+04
-1.238909765625000000e+04
-1.238927343750000000e+04
-1.238933984375000000e+04
-1.238939843750000000e+04
-1.238942089843750000e+04
-1.238926855468750000e+04
-1.238906250000000000e+04
-1.238906054687500000e+04
-1.238892480468750000e+04
-1.238887500000000000e+04
-1.238901367187500000e+04
-1.238909667968750000e+04
-1.238914843750000000e+04
-1.238947070312500000e+04
-1.238946191406250000e+04
-1.238945996093750000e+04
-1.238945703125000000e+04
-1.238945214843750000e+04
-1.238944726562500000e+04
-1.238938476562500000e+04
-1.238938378906250000e+04
-1.238947460937500000e+04
-1.239008007812500000e+04
-1.238995214843750000e+04
-1.238989648437500000e+04
-1.238935253906250000e+04
-1.238916699218750000e+04
-1.238860839843750000e+04
-1.238848632812500000e+04
-1.238811230468750000e+04
-1.238745117187500000e+04
-1.238729394531250000e+04
-1.238718457031250000e+04
-1.238715136718750000e+04
-1.238714355468750000e+04
-1.238720507812500000e+04
-1.238734765625000000e+04
-1.238750781250000000e+04
-1.238765039062500000e+04
-1.238779199218750000e+04
-1.238767089843750000e+04
-1.238739843750000000e+04
-1.238659082031250000e+04
-1.238636132812500000e+04
-1.238653125000000000e+04
-1.238666992187500000e+04
-1.238672753906250000e+04
-1.238713671875000000e+04
-1.238729101562500000e+04
-1.238768359375000000e+04
-1.238789746093750000e+04
-1.238812988281250000e+04
-1.238825390625000000e+04
-1.238832812500000000e+04
-1.238833789062500000e+04
-1.238788183593750000e+04
-1.238758105468750000e+04
-1.238717285156250000e+04
-1.238721484375000000e+04
-1.238740625000000000e+04
-1.238748046875000000e+04
-1.238763085937500000e+04
-1.238766015625000000e+04
-1.238758691406250000e+04
-1.238701953125000000e+04
-1.238668554687500000e+04
-1.238590136718750000e+04
-1.238548339843750000e+04
-1.238528027343750000e+04
-1.238444921875000000e+04
-1.238433691406250000e+04
-1.238410839843750000e+04
-1.238418359375000000e+04
-1.238469140625000000e+04
-1.238473046875000000e+04
-1.238479101562500000e+04
-1.238452050781250000e+04
-1.238422949218750000e+04
-1.238417675781250000e+04
-1.238412890625000000e+04
-1.238401757812500000e+04
-1.238413378906250000e+04
-1.238416503906250000e+04
-1.238432910156250000e+04
-1.238434472656250000e+04
-1.238435742187500000e+04
-1.238395703125000000e+04
-1.238389746093750000e+04
-1.238385449218750000e+04
-1.238385351562500000e+04
-1.238384765625000000e+04
-1.238367578125000000e+04
-1.238363867187500000e+04
-1.238344335937500000e+04
-1.238333789062500000e+04
-1.238340625000000000e+04
-1.238593945312500000e+04
-1.238594433593750000e+04
-1.238588671875000000e+04
-1.238529199218750000e+04
-1.238426171875000000e+04
-1.238394726562500000e+04
-1.238378710937500000e+04
-1.238348730468750000e+04
-1.238334179687500000e+04
-1.238233789062500000e+04
-1.238229882812500000e+04
-1.238253710937500000e+04
-1.238278515625000000e+04
-1.238294921875000000e+04
-1.238299902343750000e+04
-1.238302636718750000e+04
-1.238287890625000000e+04
-1.238281250000000000e+04
-1.238273925781250000e+04
-1.238255468750000000e+04
-1.238257031250000000e+04
-1.238263671875000000e+04
-1.238301660156250000e+04
-1.238351464843750000e+04
-1.238395800781250000e+04
-1.238503125000000000e+04
-1.238498437500000000e+04
-1.238472949218750000e+04
-1.238462402343750000e+04
-1.238447656250000000e+04
-1.238436718750000000e+04
-1.238434179687500000e+04
-1.238428906250000000e+04
-1.238432421875000000e+04
-1.238433300781250000e+04
-1.238433789062500000e+04
-1.238434570312500000e+04
-1.238435546875000000e+04
-1.238442285156250000e+04
-1.238462402343750000e+04
-1.238469824218750000e+04
-1.238562109375000000e+04
-1.238542480468750000e+04
-1.238533203125000000e+04
-1.238522851562500000e+04
-1.238499511718750000e+04
-1.238412109375000000e+04
-1.238401855468750000e+04
-1.238384570312500000e+04
-1.238368066406250000e+04
-1.238363183593750000e+04
-1.238381933593750000e+04
-1.238389257812500000e+04
-1.238400097656250000e+04
-1.238409765625000000e+04
-1.238412500000000000e+04
-1.238414941406250000e+04
-1.238422753906250000e+04
-1.238425878906250000e+04
-1.238466308593750000e+04
-1.238462011718750000e+04
-1.238450195312500000e+04
-1.238402441406250000e+04
-1.238346679687500000e+04
-1.238237011718750000e+04
-1.238233105468750000e+04
-1.238241015625000000e+04
-1.238347363281250000e+04
-1.238369726562500000e+04
-1.238379296875000000e+04
-1.238383496093750000e+04
-1.238393652343750000e+04
-1.238416699218750000e+04
-1.238423632812500000e+04
-1.238453125000000000e+04
-1.238474121093750000e+04
-1.238487402343750000e+04
-1.238494238281250000e+04
-1.238504980468750000e+04
-1.238507324218750000e+04
-1.238515917968750000e+04
-1.238602343750000000e+04
-1.238666503906250000e+04
-1.238661523437500000e+04
-1.238646289062500000e+04
-1.238554687500000000e+04
-1.238429296875000000e+04
-1.238420800781250000e+04
-1.238448535156250000e+04
-1.238535742187500000e+04
-1.238564160156250000e+04
-1.238599316406250000e+04
-1.238612890625000000e+04
-1.238585839843750000e+04
-1.238579199218750000e+04
-1.238571875000000000e+04
-1.238555273437500000e+04
-1.238494921875000000e+04
-1.238406542968750000e+04
-1.238338574218750000e+04
-1.238312988281250000e+04
-1.238300976562500000e+04
-1.238290039062500000e+04
-1.238271191406250000e+04
-1.238252343750000000e+04
-1.238275195312500000e+04
-1.238324121093750000e+04
-1.238309960937500000e+04
-1.238261230468750000e+04
-1.238220117187500000e+04
-1.238209570312500000e+04
-1.238170703125000000e+04
-1.238134179687500000e+04
-1.238128808593750000e+04
-1.238110839843750000e+04
-1.238121289062500000e+04
-1.238126269531250000e+04
-1.238143847656250000e+04
-1.238201855468750000e+04
-1.238245800781250000e+04
-1.238271777343750000e+04
-1.238288476562500000e+04
-1.238293457031250000e+04
-1.238298144531250000e+04
-1.238312109375000000e+04
-1.238300000000000000e+04
-1.238285742187500000e+04
-1.238276660156250000e+04
-1.238213964843750000e+04
-1.238027441406250000e+04
-1.238020605468750000e+04
-1.238010644531250000e+04
-1.238088085937500000e+04
-1.238153222656250000e+04
-1.238251269531250000e+04
-1.238251953125000000e+04
-1.238242773437500000e+04
-1.238237011718750000e+04
-1.238159570312500000e+04
-1.238143164062500000e+04
-1.238119726562500000e+04
-1.238086816406250000e+04
-1.238054882812500000e+04
-1.238049414062500000e+04
-1.238043847656250000e+04
-1.238042480468750000e+04
-1.238045019531250000e+04
-1.238051074218750000e+04
-1.238072851562500000e+04
-1.238073437500000000e+04
-1.238046191406250000e+04
-1.238035546875000000e+04
-1.238022949218750000e+04
-1.238021191406250000e+04
-1.238021875000000000e+04
-1.238036328125000000e+04
-1.238042480468750000e+04
-1.238043847656250000e+04
-1.238043554687500000e+04
-1.237991113281250000e+04
-1.237970800781250000e+04
-1.237928417968750000e+04
-1.237900585937500000e+04
-1.237882031250000000e+04
-1.237876855468750000e+04
-1.237880273437500000e+04
-1.237889746093750000e+04
-1.237920312500000000e+04
-1.237949121093750000e+04
-1.237977246093750000e+04
-1.238026855468750000e+04
-1.238016015625000000e+04
-1.237999707031250000e+04
-1.237936914062500000e+04
-1.237915332031250000e+04
-1.237897753906250000e+04
-1.237896582031250000e+04
-1.237896093750000000e+04
-1.237897363281250000e+04
-1.237892382812500000e+04
-1.237851562500000000e+04
-1.237840039062500000e+04
-1.237800976562500000e+04
-1.237741113281250000e+04
-1.237745312500000000e+04
-1.237782714843750000e+04
-1.237815625000000000e+04
-1.237839941406250000e+04
-1.237863378906250000e+04
-1.237900097656250000e+04
-1.237923535156250000e+04
-1.237925000000000000e+04
-1.237891406250000000e+04
-1.237910839843750000e+04
-1.238017578125000000e+04
-1.238158007812500000e+04
-1.238174902343750000e+04
-1.238014550781250000e+04
-1.237994433593750000e+04
-1.237974707031250000e+04
-1.237891210937500000e+04
-1.237879492187500000e+04
-1.237855566406250000e+04
-1.237851171875000000e+04
-1.237893652343750000e+04
-1.237902636718750000e+04
-1.237927832031250000e+04
-1.237932324218750000e+04
-1.237929492187500000e+04
-1.237926074218750000e+04
-1.237771484375000000e+04
-1.237654687500000000e+04
-1.237589160156250000e+04
-1.237581054687500000e+04
-1.237575195312500000e+04
-1.237582910156250000e+04
-1.237589746093750000e+04
-1.237574414062500000e+04
-1.237572167968750000e+04
-1.237581835937500000e+04
-1.237584082031250000e+04
-1.237586328125000000e+04
-1.237598242187500000e+04
-1.237624804687500000e+04
-1.237650683593750000e+04
-1.237671484375000000e+04
-1.237686425781250000e+04
-1.237694238281250000e+04
-1.237733105468750000e+04
-1.237760058593750000e+04
-1.237781250000000000e+04
-1.237789355468750000e+04
-1.237795703125000000e+04
-1.237808789062500000e+04
-1.237814746093750000e+04
-1.237815527343750000e+04
-1.237814648437500000e+04
-1.237707226562500000e+04
-1.237616308593750000e+04
-1.237603515625000000e+04
-1.237591308593750000e+04
-1.237547363281250000e+04
-1.237603515625000000e+04
-1.237629687500000000e+04
-1.237805273437500000e+04
-1.237806054687500000e+04
-1.237806152343750000e+04
-1.237788183593750000e+04
-1.237771582031250000e+04
-1.237764941406250000e+04
-1.237720507812500000e+04
-1.237712695312500000e+04
-1.237690039062500000e+04
-1.237645703125000000e+04
-1.237638281250000000e+04
-1.237674902343750000e+04
-1.237766796875000000e+04
-1.237800390625000000e+04
-1.237810742187500000e+04
-1.237840332031250000e+04
-1.237849804687500000e+04
-1.237945214843750000e+04
-1.237965820312500000e+04
-1.237976171875000000e+04
-1.238034765625000000e+04
-1.238083398437500000e+04
-1.238057812500000000e+04
-1.237989941406250000e+04
-1.237836621093750000e+04
-1.237794140625000000e+04
-1.237759277343750000e+04
-1.237718847656250000e+04
-1.237779296875000000e+04
-1.237802636718750000e+04
-1.237836328125000000e+04
-1.237937792968750000e+04
-1.237938574218750000e+04
-1.237934179687500000e+04
-1.237927148437500000e+04
-1.237922363281250000e+04
-1.237916601562500000e+04
-1.237902246093750000e+04
-1.237893750000000000e+04
-1.237884277343750000e+04
-1.237874121093750000e+04
-1.237863378906250000e+04
-1.237851660156250000e+04
-1.237694238281250000e+04
-1.237714550781250000e+04
-1.237722558593750000e+04
-1.237731250000000000e+04
-1.237759179687500000e+04
-1.237785156250000000e+04
-1.237816210937500000e+04
-1.237805859375000000e+04
-1.237779296875000000e+04
-1.237776464843750000e+04
-1.237791699218750000e+04
-1.237804492187500000e+04
-1.237876562500000000e+04
-1.237904394531250000e+04
-1.237927929687500000e+04
-1.237930273437500000e+04
-1.237932519531250000e+04
-1.237932324218750000e+04
-1.237926757812500000e+04
-1.237889453125000000e+04
-1.237854785156250000e+04
-1.237853808593750000e+04
-1.237921386718750000e+04
-1.237944824218750000e+04
-1.237980273437500000e+04
-1.237998437500000000e+04
-1.237994433593750000e+04
-1.237962597656250000e+04
-1.237936718750000000e+04
-1.237865039062500000e+04
-1.237857617187500000e+04
-1.237902148437500000e+04
-1.237907324218750000e+04
-1.237926171875000000e+04
-1.237945410156250000e+04
-1.237961132812500000e+04
-1.237953808593750000e+04
-1.237943359375000000e+04
-1.237938964843750000e+04
-1.237929101562500000e+04
-1.237880175781250000e+04
-1.237831640625000000e+04
-1.237817968750000000e+04
-1.237778808593750000e+04
-1.237776660156250000e+04
-1.237786425781250000e+04
-1.237798242187500000e+04
-1.237854687500000000e+04
-1.237932421875000000e+04
-1.238022558593750000e+04
-1.237987792968750000e+04
-1.237986035156250000e+04
-1.237992871093750000e+04
-1.238000195312500000e+04
-1.238061816406250000e+04
-1.238082421875000000e+04
-1.238078710937500000e+04
-1.238074414062500000e+04
-1.237867089843750000e+04
-1.237856835937500000e+04
-1.237839648437500000e+04
-1.237808593750000000e+04
-1.237800390625000000e+04
-1.237790722656250000e+04
-1.237773437500000000e+04
-1.237764453125000000e+04
-1.237754199218750000e+04
-1.237743066406250000e+04
-1.237723144531250000e+04
-1.237729882812500000e+04
-1.237813671875000000e+04
-1.237980175781250000e+04
-1.237995703125000000e+04
-1.238056933593750000e+04
-1.238108593750000000e+04
-1.238111035156250000e+04
-1.238114550781250000e+04
-1.238113378906250000e+04
-1.238037695312500000e+04
-1.238023828125000000e+04
-1.237896191406250000e+04
-1.237857226562500000e+04
-1.237864160156250000e+04
-1.237866210937500000e+04
-1.237865820312500000e+04
-1.237842187500000000e+04
-1.237836523437500000e+04
-1.237764746093750000e+04
-1.237746093750000000e+04
-1.237741308593750000e+04
-1.237737500000000000e+04
-1.237731835937500000e+04
-1.237733593750000000e+04
-1.237760058593750000e+04
-1.237786035156250000e+04
-1.237797460937500000e+04
-1.237809082031250000e+04
-1.237822851562500000e+04
-1.237829785156250000e+04
-1.237833398437500000e+04
-1.237836914062500000e+04
-1.237843066406250000e+04
-1.237846582031250000e+04
-1.237853417968750000e+04
-1.237858398437500000e+04
-1.237864746093750000e+04
-1.237873242187500000e+04
-1.237876660156250000e+04
-1.237880078125000000e+04
-1.237881250000000000e+04
-1.237881250000000000e+04
-1.237811816406250000e+04
-1.237750781250000000e+04
-1.237717675781250000e+04
-1.237640234375000000e+04
-1.237604003906250000e+04
-1.237599414062500000e+04
-1.237616503906250000e+04
-1.237634375000000000e+04
-1.237645312500000000e+04
-1.237682910156250000e+04
-1.237697363281250000e+04
-1.237806347656250000e+04
-1.237824218750000000e+04
-1.237841796875000000e+04
-1.237871386718750000e+04
-1.237889160156250000e+04
-1.237929394531250000e+04
-1.237944335937500000e+04
-1.237961328125000000e+04
-1.237962109375000000e+04
-1.237966113281250000e+04
-1.237968359375000000e+04
-1.238013867187500000e+04
-1.238015722656250000e+04
-1.238022558593750000e+04
-1.238019238281250000e+04
-1.238011035156250000e+04
-1.238002050781250000e+04
-1.237973535156250000e+04
-1.237941503906250000e+04
-1.237921972656250000e+04
-1.237913964843750000e+04
-1.237912207031250000e+04
-1.237909082031250000e+04
-1.237909179687500000e+04
-1.237911621093750000e+04
-1.237910742187500000e+04
-1.237907324218750000e+04
-1.237897753906250000e+04
-1.237836230468750000e+04
-1.237807128906250000e+04
-1.237757324218750000e+04
-1.237747851562500000e+04
-1.237711035156250000e+04
-1.237650195312500000e+04
-1.237642089843750000e+04
-1.237599218750000000e+04
-1.237597167968750000e+04
-1.237609277343750000e+04
-1.237615722656250000e+04
-1.237623828125000000e+04
-1.237654003906250000e+04
-1.237665234375000000e+04
