3.873075008392333984e+00 7.923094630241394043e-01 8.282326698303222656e+00 6.752187609672550828e-01 7.728224754333496094e+00 8.894881606101989746e-01 -2.526724338531494141e+00 1.765165567398070845e+00 7.685556411743164951e+00 7.091816902160644531e+00 6.750303268432617188e+00 1.497427940368652344e+00 4.725234508514403409e+00 2.194480895996093750e+00 5.238282680511474609e+00 -1.747263669967649702e-01 6.324620246887207031e+00 3.950292348861694336e+00 4.003085613250731534e+00 8.658397674560546875e+00 6.044753551483154297e+00 5.325287580490113415e-01 -1.338882893323898315e-01 3.126085996627807617e+00 5.814954280853271484e+00 1.799494266510009544e+00 4.448905587196350098e-01 -1.270125269889831099e+00 6.742287158966064453e+00 8.727695465087890625e+00 5.625597953796386719e+00 1.611190557479858176e+00 9.155483245849609375e+00 -1.074665188789367676e+00 6.914429664611815518e+00 2.320946380496025085e-02 3.200884342193603072e+00 2.038402318954467773e+00 6.707833290100097656e+00 1.342978477478027344e+00 6.493963241577148438e+00 2.474895715713500977e+00 2.496011972427366832e+00 8.523865699768066406e+00 7.517185211181640625e+00 2.059916734695434570e+00 -2.274006372317668740e-03 1.667603373527526855e+00 -9.500144124031069115e-01 2.512402057647705078e+00 8.476767539978027344e+00 5.498724460601806641e+00 6.014968872070312500e+00 7.024578452110290527e-01 6.463298320770262784e+00 3.027410030364989790e+00 6.112822532653808594e+00 -1.916032075881958008e+00 5.501484870910644531e+00 3.077049493789672852e+00 -2.114070653915405273e+00 -1.583819240331651168e-01 6.917031764984130859e+00 6.663163185119628018e+00 8.684004783630371094e+00 2.256994009017944336e+00 4.119314193725585938e+00 3.325941324234008789e+00 3.796101331710814986e+00 4.111310839653015137e-01 5.201904773712158203e+00 5.380218982696533203e+00 5.175813674926757812e+00 2.740066945552825373e-01 4.481760025024414062e+00 -6.192830204963677421e-01 8.249095916748046875e+00 4.704642295837402344e+00 4.400240421295166016e+00 6.913314819335937500e+00 5.357501983642578125e+00 1.414283215999603271e-01 1.611345052719116211e+00 3.823764085769653320e+00
3.901542425155639204e+00 7.716202139854432263e-01 8.250373840332031250e+00 6.535274386405944824e-01 7.692110061645506924e+00 8.273606300354003906e-01 -2.426186800003051758e+00 1.686917781829833984e+00 7.713508129119873047e+00 7.187867164611816406e+00 6.707128524780273438e+00 1.502483487129211426e+00 4.754722595214842862e+00 2.161083221435546875e+00 5.299894809722901279e+00 -1.763756275177001676e-01 6.292497158050537109e+00 3.981191396713256836e+00 3.924038887023924449e+00 8.598597526550292969e+00 5.996644020080566406e+00 4.726737439632415771e-01 -8.683246374130249023e-02 3.069513797760009766e+00 5.804968357086181641e+00 1.903497815132140891e+00 4.004705846309661865e-01 -1.294240593910217507e+00 6.829118728637695312e+00 8.683279991149902344e+00 8.977382659912109375e+00 2.720899105072021484e+00 3.058815002441406250e-02 -4.388915061950683594e+00 5.802869796752928799e+00 9.130446434020996094e+00 3.164057731628417969e+00 2.024513721466064453e+00 6.745809078216552734e+00 1.335629224777221458e+00 6.585142135620117188e+00 2.468271017074585405e+00 2.595936059951781782e+00 8.551591873168945312e+00 7.525340080261230469e+00 2.055386543273925781e+00 -7.912969589233398438e-02 1.716187834739685059e+00 -9.648722410202024147e-01 2.534193515777587447e+00 8.488254547119140625e+00 5.531361579895019531e+00 6.015820980072020596e+00 6.842499375343322754e-01 6.428110122680664062e+00 3.072515487670898438e+00 6.130981445312500000e+00 -1.887296438217163308e+00 5.493302822113037109e+00 3.175325393676757812e+00 -2.172999620437622070e+00 -1.610612720251085039e-01 6.884393215179443359e+00 6.737501621246337891e+00 8.683557510375976562e+00 2.217047929763793945e+00 3.972786188125609907e+00 3.307449579238891602e+00 3.799072980880737305e+00 3.570894598960869248e-01 5.237522602081297940e+00 5.343661308288574219e+00 5.252378463745117188e+00 3.244199752807616077e-01 4.538148880004882812e+00 -5.935119986534116432e-01 8.169222831726074219e+00 4.720174312591552734e+00 4.418322086334228516e+00 6.913065433502197266e+00 5.349161624908447266e+00 5.103250965476028439e-02 1.598107814788818359e+00 3.845794677734375000e+00
3.906167507171630415e+00 7.693148851394652210e-01 8.246128082275390625e+00 6.501274704933167614e-01 7.686570644378662109e+00 8.173514604568482556e-01 -2.411877632141113281e+00 1.674411058425903320e+00 7.717674255371093750e+00 7.202545166015624112e+00 6.699547767639160156e+00 1.503028512001037598e+00 4.758317947387695312e+00 2.157606363296508789e+00 5.309082508087158203e+00 -1.771775037050241641e-01 6.289666652679443359e+00 3.983949661254882812e+00 3.911907672882080078e+00 8.590135574340820312e+00 5.989229202270506924e+00 4.638699293136595569e-01 -8.002308756113049593e-02 3.061168432235717773e+00 5.803677082061767578e+00 1.920192122459411621e+00 3.929717838764190674e-01 -1.298364281654358132e+00 6.843543052673340732e+00 8.676036834716796875e+00 8.983540534973144531e+00 2.717526435852050781e+00 3.901004791259765625e-02 -4.389016151428222656e+00 5.805437088012695312e+00 9.118478775024414062e+00 3.158557891845703125e+00 2.022076368331908736e+00 6.751710891723633701e+00 1.334594011306762251e+00 6.599422931671142578e+00 2.467223882675170454e+00 2.611435413360595703e+00 8.555191040039062500e+00 7.527223110198974609e+00 2.054908752441405806e+00 -9.107907116413115067e-02 1.723747730255126953e+00 -9.660384654998781517e-01 2.538282155990600586e+00 8.490562438964843750e+00 5.537695407867431641e+00 6.016292095184326172e+00 6.818127036094665527e-01 6.422521114349364346e+00 3.079585552215576616e+00 6.134432315826416016e+00 -1.883079648017883523e+00 5.491778373718261719e+00 3.190725326538085938e+00 -2.181975126266479492e+00 -1.622253358364105225e-01 6.878821849822998047e+00 6.748773574829100674e+00 8.683190345764160156e+00 2.210169076919555664e+00 3.949337959289550781e+00 3.303293466567993164e+00 3.800865173339843750e+00 3.494063317775726318e-01 5.241304874420166016e+00 5.340116500854492188e+00 5.264684200286865234e+00 3.322551846504210316e-01 4.546312808990478516e+00 -5.896697640419005237e-01 8.156857490539550781e+00 4.722519874572753018e+00 4.421475410461425781e+00 6.912201404571532315e+00 5.347504138946533203e+00 3.598216548562022804e-02 1.596165180206298606e+00 3.849317073822021484e+00
3.917505502700805664e+00 7.657854557037354626e-01 8.237477302551269531e+00 6.420699954032897949e-01 7.673586845397949219e+00 7.929292917251586914e-01 -2.380499839782715288e+00 1.644015789031981978e+00 7.727370262145996094e+00 7.236858844757080078e+00 6.679965496063232422e+00 1.503831386566162109e+00 4.764851093292236328e+00 2.152655601501464400e+00 5.330341339111328125e+00 -1.801035851240157248e-01 6.287390232086180752e+00 3.986246347427368164e+00 3.883404016494751421e+00 8.571660041809082031e+00 5.971555233001708984e+00 4.441831409931182861e-01 -6.458781659603120284e-02 3.042252540588378906e+00 5.801025390625000000e+00 1.960882663726806641e+00 3.741106390953063965e-01 -1.308835506439209651e+00 6.879480361938476562e+00 8.658185005187988281e+00 8.998703002929687500e+00 2.708767175674438477e+00 5.866050720214844444e-02 -4.389404773712158203e+00 5.811205863952636719e+00 9.088858604431152344e+00 3.146014451980590376e+00 2.015673398971557617e+00 6.765687465667724609e+00 1.332380056381224920e+00 6.633474349975585938e+00 2.464655160903930664e+00 2.648035764694214311e+00 8.562250137329101562e+00 7.533071994781494141e+00 2.054225206375122070e+00 -1.193166598677635193e-01 1.741723775863647461e+00 -9.665085673332212135e-01 2.549417018890380415e+00 8.497130393981933594e+00 5.555095195770262784e+00 6.018013477325439453e+00 6.767054796218872070e-01 6.408963680267333096e+00 3.096498727798461914e+00 6.143755435943604404e+00 -1.873656272888183594e+00 5.487605094909667969e+00 3.227375268936157227e+00 -2.202761888504028320e+00 -1.664472520351410467e-01 6.864659786224365234e+00 6.774709224700928623e+00 8.681511878967285156e+00 2.192371129989624023e+00 3.892401695251464844e+00 3.291110515594482422e+00 3.807537555694580078e+00 3.327084481716157671e-01 5.246526241302489346e+00 5.336237430572509766e+00 5.294717311859130859e+00 3.507868647575378973e-01 4.564428329467773438e+00 -5.809061527252196155e-01 8.127733230590820312e+00 4.728091716766358310e+00 4.429627895355224609e+00 6.908451080322265625e+00 5.342769145965576172e+00 -1.645590877160626629e-03 1.591812014579773171e+00 3.857944250106811523e+00
3.930620908737182617e+00 7.664464712142943226e-01 8.231341361999511719e+00 6.334772109985353783e-01 7.659950733184814453e+00 7.648191452026367188e-01 -2.351837873458862305e+00 1.609546303749084473e+00 7.737865924835205078e+00 7.272927761077879971e+00 6.655271530151367188e+00 1.503575921058654785e+00 4.767302989959716797e+00 2.154614448547362837e+00 5.352446556091308594e+00 -1.849991232156754095e-01 6.294332981109619141e+00 3.979807615280151811e+00 3.853076219558715820e+00 8.554926872253417969e+00 5.951797485351562500e+00 4.258023798465728760e-01 -4.897712916135790739e-02 3.023759126663208008e+00 5.798964977264404297e+00 2.007505416870117188e+00 3.513758480548858643e-01 -1.321774840354918990e+00 6.922291755676269531e+00 8.637343406677246094e+00 9.016407966613771308e+00 2.697504043579101118e+00 7.919216156005859375e-02 -4.390186309814453125e+00 5.816653251647949219e+00 9.054024696350097656e+00 3.133640050888061968e+00 2.007274866104125977e+00 6.780719280242920810e+00 1.330587744712829368e+00 6.670680046081542969e+00 2.461601734161376953e+00 2.687215089797974521e+00 8.566508293151855469e+00 7.542854785919189453e+00 2.054517269134521040e+00 -1.495012640953063965e-01 1.761353254318237305e+00 -9.621378779411314808e-01 2.564623594284057617e+00 8.506587028503417969e+00 5.579197883605956143e+00 6.021121025085449219e+00 6.725796461105346680e-01 6.393514156341552734e+00 3.115211963653564453e+00 6.156349182128906250e+00 -1.864940881729125977e+00 5.481677055358886719e+00 3.267172098159789595e+00 -2.223902940750122070e+00 -1.743106693029404242e-01 6.847198963165283203e+00 6.800656795501708096e+00 8.677518844604492188e+00 2.169483423233032227e+00 3.827630758285522461e+00 3.272891998291015625e+00 3.820016860961914062e+00 3.178527355194096793e-01 5.243990421295166016e+00 5.341804981231689453e+00 5.329253196716308594e+00 3.707541823387145996e-01 4.581119537353515625e+00 -5.722557306289671741e-01 8.096953392028808594e+00 4.734445571899414062e+00 4.439962387084960938e+00 6.900666236877441406e+00 5.335810184478759766e+00 -4.680018872022660009e-02 1.587590575218200684e+00 3.867930650711059570e+00
3.974342346191406694e+00 8.123579621315001331e-01 8.249835968017578125e+00 6.157416701316833496e-01 7.634495735168457031e+00 6.746156811714172363e-01 -2.318786382675170898e+00 1.518200993537903054e+00 7.775622367858886719e+00 7.351575851440430576e+00 6.563360214233398438e+00 1.491323709487915261e+00 4.722201824188231534e+00 2.230854034423828125e+00 5.398130893707275391e+00 -1.908087432384488469e-01 6.368128776550292969e+00 3.912970542907714844e+00 3.784799337387084961e+00 8.535219192504882812e+00 5.889245510101318359e+00 4.106898903846740168e-01 -1.386511791497467561e-02 2.999829769134521484e+00 5.798936367034912109e+00 2.149261474609375000e+00 2.763288915157318115e-01 -1.371334075927734375e+00 7.067742347717285156e+00 8.571455955505371094e+00 9.073740959167480469e+00 2.650494098663330078e+00 1.212806701660156250e-01 -4.395317077636718750e+00 5.819547653198242188e+00 8.942070007324218750e+00 3.117897272109985796e+00 1.971464633941650391e+00 6.813612937927246982e+00 1.334563851356505682e+00 6.761186122894287109e+00 2.449063301086425781e+00 2.776491403579711914e+00 8.543021202087402344e+00 7.607916355133056641e+00 2.066779375076294389e+00 -2.137487381696701050e-01 1.811676144599914551e+00 -9.163827300071718529e-01 2.624991893768310103e+00 8.545654296875000000e+00 5.687902927398681641e+00 6.037412166595458984e+00 6.737247109413146973e-01 6.346177101135253018e+00 3.166046857833862305e+00 6.212457180023193359e+00 -1.861211895942687988e+00 5.448627948760985440e+00 3.362051248550415039e+00 -2.254586219787597656e+00 -2.259635925292968472e-01 6.783989429473877841e+00 6.839398384094237393e+00 8.639875411987304688e+00 2.072854518890380859e+00 3.635150194168090376e+00 3.179149866104125977e+00 3.903633117675781694e+00 2.997505068778991699e-01 5.180481433868407315e+00 5.418582439422607422e+00 5.434541225433349609e+00 4.224054813385008655e-01 4.589874744415283203e+00 -5.625647902488708496e-01 8.042521476745605469e+00 4.761810302734375000e+00 4.477806091308593750e+00 6.852093219757080078e+00 5.301940917968750000e+00 -2.036059200763699339e-01 1.578448295593261719e+00 3.897588491439819336e+00
3.990355253219604492e+00 8.385494947433471680e-01 8.268300056457519531e+00 6.138328909873960182e-01 7.635069370269775391e+00 6.460123062133789062e-01 -2.322442770004272461e+00 1.501735687255859597e+00 7.791839599609375000e+00 7.364467144012450284e+00 6.534360885620117188e+00 1.484673976898193359e+00 4.689625263214110440e+00 2.275305509567260742e+00 5.402001380920410156e+00 -1.817085593938829458e-01 6.391084671020508701e+00 3.892275571823120117e+00 3.775373220443725142e+00 8.536108016967773438e+00 5.870171546936034268e+00 4.179584681987761341e-01 -7.998597808182258614e-03 3.005025625228881836e+00 5.799445629119873047e+00 2.189120054244995117e+00 2.558477222919464111e-01 -1.389177203178405762e+00 7.114221572875977451e+00 8.552357673645019531e+00 9.091372489929199219e+00 2.632620334625244141e+00 1.256484985351562500e-01 -4.396903038024902344e+00 5.814352989196777344e+00 8.909830093383789062e+00 3.122297048568725586e+00 1.958137035369872825e+00 6.816508293151855469e+00 1.340188860893249290e+00 6.775896549224853516e+00 2.443266391754150391e+00 2.789930820465087891e+00 8.524381637573242188e+00 7.639173984527587891e+00 2.074882984161376953e+00 -2.187495976686477661e-01 1.822059988975524680e+00 -8.983510732650763497e-01 2.642101287841797319e+00 8.556620597839355469e+00 5.727095603942871094e+00 6.041885375976562500e+00 6.768044829368591309e-01 6.332156181335449219e+00 3.178035020828247070e+00 6.234753131866455966e+00 -1.867357492446899414e+00 5.433093547821044922e+00 3.377922058105468750e+00 -2.247879505157470703e+00 -2.491782754659652432e-01 6.763926982879638672e+00 6.837390422821044034e+00 8.619689941406250000e+00 2.036573648452758789e+00 3.582633495330810547e+00 3.139654874801635742e+00 3.943968296051025391e+00 2.990042865276335560e-01 5.153436660766601562e+00 5.446964263916015625e+00 5.462905406951904297e+00 4.358746111392974854e-01 4.576607227325439453e+00 -5.674747824668887608e-01 8.047604560852050781e+00 4.775590419769287109e+00 4.488705635070800781e+00 6.834058284759521484e+00 5.288973331451416016e+00 -2.545155286788940430e-01 1.575247406959533913e+00 3.904374599456787109e+00
4.008404254913329190e+00 8.664901256561277076e-01 8.291054725646972656e+00 6.130529642105099208e-01 7.640443325042724609e+00 6.176844239234924316e-01 -2.328918933868408203e+00 1.492713809013366699e+00 7.809803009033203125e+00 7.374795436859129971e+00 6.508656024932861328e+00 1.478647828102111816e+00 4.651094436645507812e+00 2.324760198593139648e+00 5.401289939880371094e+00 -1.668386012315755118e-01 6.406713485717773438e+00 3.878157615661621094e+00 3.772293567657470703e+00 8.538075447082521308e+00 5.852977275848388672e+00 4.270410537719727118e-01 -5.450117867440061603e-03 3.015510320663452148e+00 5.798964977264404297e+00 2.225644350051879883e+00 2.393824458122253418e-01 -1.407201647758484109e+00 7.159608364105225498e+00 8.534571647644042969e+00 9.108455657958984375e+00 2.614296913146972656e+00 1.265430450439453125e-01 -4.397558212280273438e+00 5.806102752685545987e+00 8.881010055541992188e+00 3.130898714065551314e+00 1.944741368293762207e+00 6.815209388732911044e+00 1.348122239112854004e+00 6.782655239105224609e+00 2.436131954193114790e+00 2.796381711959839755e+00 8.502672195434570312e+00 7.672884941101074219e+00 2.084792375564575195e+00 -2.151968330144882202e-01 1.829366326332092285e+00 -8.825313448905945934e-01 2.655220270156860352e+00 8.564920425415039062e+00 5.762657165527342862e+00 6.043729782104492188e+00 6.787002086639404297e-01 6.318457126617430752e+00 3.187758922576904297e+00 6.258323669433593750e+00 -1.874597549438476785e+00 5.416266441345213956e+00 3.386587858200073242e+00 -2.232858180999755859e+00 -2.734123170375823975e-01 6.745635032653808594e+00 6.831575870513915127e+00 8.597116470336914062e+00 2.000258207321166992e+00 3.534619569778441939e+00 3.098247051239013672e+00 3.988298654556274414e+00 2.986469566822051447e-01 5.128411293029785156e+00 5.470809459686279297e+00 5.487172126770019531e+00 4.487627744674683172e-01 4.556988716125488281e+00 -5.764466524124138846e-01 8.064310073852539062e+00 4.791960716247559482e+00 4.497534275054930752e+00 6.817957401275634766e+00 5.275990009307861328e+00 -3.040806651115414705e-01 1.570726037025451438e+00 3.908859491348266602e+00
4.013987064361572266e+00 8.744540810585023083e-01 8.298140525817871094e+00 6.129294633865358666e-01 7.642854213714599609e+00 6.096544265747070312e-01 -2.330969333648681641e+00 1.491420507431030495e+00 7.815101623535156250e+00 7.377741336822509766e+00 6.502136230468750000e+00 1.477270245552062988e+00 4.639448642730712891e+00 2.339328289031982422e+00 5.400549888610839844e+00 -1.617274731397629062e-01 6.409672737121582031e+00 3.875618219375610796e+00 3.772547245025634766e+00 8.538725852966308594e+00 5.848535537719726562e+00 4.296115636825559858e-01 -5.388713907450460965e-03 3.019362926483154297e+00 5.798561096191405362e+00 2.235512495040893555e+00 2.355450689792633057e-01 -1.412316441535949929e+00 7.172385215759277344e+00 8.529688835144042969e+00 9.113261222839355469e+00 2.609058856964111328e+00 1.263523101806640625e-01 -4.397489070892333984e+00 5.803202629089354581e+00 8.873473167419433594e+00 3.134040117263793945e+00 1.940938949584960715e+00 6.814116477966309482e+00 1.350800037384032981e+00 6.783150672912597656e+00 2.433809518814086914e+00 2.797078371047974077e+00 8.496133804321289062e+00 7.682707309722900391e+00 2.087911367416382280e+00 -2.126330882310867310e-01 1.830904841423034668e+00 -8.786271810531616211e-01 2.658106088638305664e+00 8.566730499267578125e+00 5.771614074707031250e+00 6.043569564819335938e+00 6.787528991699218750e-01 6.314538955688476562e+00 3.190149068832397461e+00 6.265233516693116123e+00 -1.876599907875061035e+00 5.411368370056151456e+00 3.387810945510864258e+00 -2.227139949798583984e+00 -2.803447842597960871e-01 6.740844249725341797e+00 6.829554080963134766e+00 8.590362548828125000e+00 1.990069627761840820e+00 3.521455049514770508e+00 3.086365938186645508e+00 4.001309394836425781e+00 2.985333502292636942e-01 5.121863365173339844e+00 5.476559162139892578e+00 5.493309974670410156e+00 4.523773193359375555e-01 4.550416469573974609e+00 -5.797058343887330212e-01 8.070982933044433594e+00 4.796985149383544922e+00 4.499604701995849609e+00 6.813883304595946377e+00 5.272323608398437500e+00 -3.179330825805664062e-01 1.569093942642211692e+00 3.909659624099731445e+00
4.031795978546141690e+00 8.975062966346741833e-01 8.320439338684082031e+00 6.125478148460385963e-01 7.652379512786865234e+00 5.858689546585083008e-01 -2.336950540542602539e+00 1.490660429000854270e+00 7.830904006958007812e+00 7.387601852416992188e+00 6.485244274139404297e+00 1.474583387374877930e+00 4.604362964630126953e+00 2.382886409759521484e+00 5.398111343383789062e+00 -1.447001397609711248e-01 6.414565563201904297e+00 3.872552871704101562e+00 3.776274204254150391e+00 8.540821075439453125e+00 5.836740493774414062e+00 4.365380108356476385e-01 -7.096727844327679544e-03 3.032957077026367188e+00 5.796527862548828125e+00 2.263715982437133789e+00 2.265848517417907715e-01 -1.427370429039001465e+00 7.210256576538085938e+00 8.515425682067871094e+00 9.127557754516601562e+00 2.593554973602294922e+00 1.251659393310546875e-01 -4.396399021148681641e+00 5.793106555938720703e+00 8.852886199951171875e+00 3.145040988922118697e+00 1.929625749588012917e+00 6.809160232543945312e+00 1.359845399856567383e+00 6.780917644500732422e+00 2.426014661788940430e+00 2.796465158462524858e+00 8.476176261901855469e+00 7.712058067321777344e+00 2.097873210906982422e+00 -2.009357959032058716e-01 1.834113717079162598e+00 -8.689401745796202503e-01 2.664260864257812944e+00 8.570571899414062500e+00 5.794067859649658203e+00 6.040803909301757812e+00 6.769807934761047363e-01 6.302614688873291904e+00 3.196372270584106445e+00 6.286273956298828125e+00 -1.881806373596191406e+00 5.396832466125488281e+00 3.388289928436279297e+00 -2.206543207168579102e+00 -3.007619678974151611e-01 6.727873802185058594e+00 6.823281764984130859e+00 8.569562911987304688e+00 1.960446953773498757e+00 3.482383966445922852e+00 3.051526546478271484e+00 4.039857387542724609e+00 2.980602085590362549e-01 5.104226112365721768e+00 5.490640163421630859e+00 5.509541511535643643e+00 4.630109369754791260e-01 4.528650760650634766e+00 -5.911541581153871849e-01 8.095252037048339844e+00 4.812478542327880859e+00 4.504490375518799716e+00 6.803357124328613281e+00 5.261511325836181641e+00 -3.585149645805360552e-01 1.563072681427001953e+00 3.910652875900268555e+00
4.038028717041014737e+00 9.047518968582152210e-01 8.328105926513671875e+00 6.123592853546142578e-01 7.656305313110351562e+00 5.780891180038452148e-01 -2.338744878768920898e+00 1.491369724273681641e+00 7.836003780364990234e+00 7.391396522521972656e+00 6.480581283569335938e+00 1.474255442619323730e+00 4.593029975891115058e+00 2.397059202194213867e+00 5.397565841674804688e+00 -1.385955065488821691e-01 6.414921760559082031e+00 3.873149394989013672e+00 3.778496742248535156e+00 8.541573524475097656e+00 5.833366394042968750e+00 4.384622871875759609e-01 -8.315083570778388986e-03 3.038117408752441406e+00 5.795573711395263672e+00 2.272674083709716797e+00 2.244834154844284058e-01 -1.432245969772338645e+00 7.222743034362792969e+00 8.510762214660644531e+00 9.132303237915039062e+00 2.588504791259765625e+00 1.247081756591796875e-01 -4.395702362060546875e+00 5.789290428161621094e+00 8.846730232238769531e+00 3.149175643920898882e+00 1.925879359245300515e+00 6.807026386260986328e+00 1.363168716430664062e+00 6.778964996337890625e+00 2.423130750656127930e+00 2.795436620712279829e+00 8.469527244567871094e+00 7.721675872802734375e+00 2.101350307464599609e+00 -1.957394778728485107e-01 1.834730505943298340e+00 -8.664491176605223499e-01 2.665451049804687500e+00 8.571313858032226562e+00 5.799879550933837891e+00 6.039042949676513672e+00 6.756377816200256348e-01 6.298549652099609375e+00 3.198154926300048384e+00 6.293354988098143643e+00 -1.883151054382324441e+00 5.392127513885498047e+00 3.387414932250976118e+00 -2.198625326156616211e+00 -3.073613047599791925e-01 6.724061965942382812e+00 6.821268081665039062e+00 8.562497138977050781e+00 1.950976014137268066e+00 3.469201087951659712e+00 3.040410995483398438e+00 4.052164077758789062e+00 2.978491783142093174e-01 5.099083423614501953e+00 5.494232177734375000e+00 5.514219284057617188e+00 4.664598405361176092e-01 4.520833015441894531e+00 -5.954806208610533558e-01 8.104560852050781250e+00 4.817653179168702060e+00 4.505661487579345703e+00 6.800458908081054688e+00 5.257980346679687500e+00 -3.716855049133304112e-01 1.560647487640380637e+00 3.910492181777954102e+00
4.041185855865478516e+00 9.082676768302918591e-01 8.331964492797851562e+00 6.122446656227112927e-01 7.658407211303710938e+00 5.742366313934326172e-01 -2.339582204818725586e+00 1.491891384124755859e+00 7.838498115539550781e+00 7.393406391143797940e+00 6.478440284729003018e+00 1.474207162857055664e+00 4.587506294250488281e+00 2.404031038284301758e+00 5.397405147552490234e+00 -1.354846954345706456e-01 6.414873123168945312e+00 3.873764991760254350e+00 3.779791116714477095e+00 8.541962623596191406e+00 5.831789970397949219e+00 4.393356144428254284e-01 -9.048301726579702567e-03 3.040807485580444336e+00 5.795047283172607422e+00 2.277073860168457031e+00 2.236025184392929077e-01 -1.434649348258972390e+00 7.228963375091552734e+00 8.508440017700195312e+00 9.134676933288574219e+00 2.586009979248046875e+00 1.244935989379882812e-01 -4.395286560058593750e+00 5.787300109863281250e+00 8.843790054321289062e+00 3.151320695877075639e+00 1.924008250236510786e+00 6.805884838104248047e+00 1.364882111549377219e+00 6.777768135070800781e+00 2.421634674072265625e+00 2.794780492782592329e+00 8.466222763061523438e+00 7.726433753967285156e+00 2.103109359741210938e+00 -1.929055452346801758e-01 1.834957122802734375e+00 -8.653501868247980289e-01 2.665882110595703125e+00 8.571583747863769531e+00 5.802448749542236328e+00 6.037995338439941406e+00 6.748118996620178223e-01 6.296494960784911221e+00 3.198996067047119141e+00 6.296902656555176669e+00 -1.883731126785278320e+00 5.389815807342529297e+00 3.386787891387939453e+00 -2.194486618041992188e+00 -3.106101453304290216e-01 6.722258567810058594e+00 6.820297718048096591e+00 8.558946609497070312e+00 1.946329832077026367e+00 3.462523460388183594e+00 3.034985780715942383e+00 4.058145999908447266e+00 2.977333664894107335e-01 5.096659660339355469e+00 5.495816230773925781e+00 5.516420841217040127e+00 4.681607782840728205e-01 4.516838550567626953e+00 -5.977312922477721058e-01 8.109410285949707031e+00 4.820219993591308594e+00 4.506159305572509766e+00 6.799129962921142578e+00 5.256229877471923828e+00 -3.781989216804507725e-01 1.559349894523620605e+00 3.910316467285156250e+00
4.060420513153076172e+00 9.275596737861632191e-01 8.355241775512695312e+00 6.111673116683961071e-01 7.672922611236572266e+00 5.518117547035217285e-01 -2.343491315841674805e+00 1.497159600257873313e+00 7.852346420288085938e+00 7.407049655914307529e+00 6.468317031860351562e+00 1.475543618202209473e+00 4.557439327239990234e+00 2.443639039993285689e+00 5.398880481719970703e+00 -1.162754148244858482e-01 6.411603927612304688e+00 3.882026910781860352e+00 3.790110588073730025e+00 8.544568061828613281e+00 5.823946952819824219e+00 4.431775212287901722e-01 -1.519882306456563775e-02 3.058374881744385210e+00 5.791278839111329013e+00 2.302406072616577148e+00 2.207048684358596802e-01 -1.448484539985656738e+00 7.266007423400878906e+00 8.494553565979003906e+00 -5.300157070159912109e-01 2.571568965911865234e+00 1.237564086914062500e-01 -4.391772747039794922e+00 5.774238586425781250e+00 8.828143119812011719e+00 3.165135145187377930e+00 1.912748694419860840e+00 6.798233032226562500e+00 1.375781536102295366e+00 6.767590522766113281e+00 2.411898612976074219e+00 2.789031744003296343e+00 8.446916580200195312e+00 7.754021167755126953e+00 2.113816499710083008e+00 -1.727255880832672119e-01 1.835224986076354980e+00 -8.608807921409604713e-01 2.666165828704833984e+00 8.571796417236328125e+00 5.813072204589843750e+00 6.029312133789062500e+00 6.676266789436340332e-01 6.283806800842284268e+00 3.203412055969238281e+00 6.318206787109375000e+00 -1.885695338249206543e+00 5.376705646514892578e+00 3.380422830581665039e+00 -2.167392492294311523e+00 -3.292434513568878174e-01 6.712943553924560547e+00 6.815242767333984375e+00 8.537442207336425781e+00 1.919869899749755637e+00 3.420423984527587447e+00 3.004794597625732422e+00 4.090657234191894531e+00 2.969083189964294989e-01 5.084284782409667969e+00 5.502319812774658203e+00 5.527718544006347656e+00 4.779357910156250000e-01 4.491952896118164062e+00 -6.123455166816711426e-01 8.140790939331054688e+00 4.835021495819091797e+00 4.507910728454590732e+00 6.792877197265624112e+00 5.245941162109375000e+00 -4.162113964557648815e-01 1.550290942192077637e+00 3.907892227172851562e+00
4.085271835327148438e+00 9.473165869712827369e-01 8.385711669921875000e+00 6.083752512931821510e-01 7.697227001190185547e+00 5.245892405509948730e-01 -2.344714879989624023e+00 1.508971810340881126e+00 7.866374492645264560e+00 7.428308963775635654e+00 6.461895465850830078e+00 1.481055498123168945e+00 4.529622077941894531e+00 2.488491535186767578e+00 5.410181045532226562e+00 -9.022555500268937545e-02 6.400240421295166016e+00 3.905367612838745561e+00 3.810652494430541104e+00 8.549227714538574219e+00 5.817932128906250000e+00 4.442242980003355268e-01 -2.806162089109419042e-02 3.085104703903198242e+00 5.785226345062255859e+00 2.333502769470214844e+00 2.230848520994186401e-01 -1.464974522590637429e+00 7.314851760864258701e+00 8.475731849670410156e+00 -5.104353427886962891e-01 2.554126501083374023e+00 1.258144378662109375e-01 -4.384195327758789062e+00 5.753984928131103516e+00 8.812860488891601562e+00 3.185397624969482422e+00 1.897273898124694824e+00 6.787124633789062500e+00 1.391396641731261541e+00 6.746487140655517578e+00 2.396997213363647461e+00 2.777257919311523882e+00 8.423569679260253906e+00 7.787322998046875000e+00 2.127813339233397993e+00 -1.379965543746948242e-01 1.832943677902221680e+00 -8.606715202331546299e-01 2.660550355911254883e+00 8.568468093872070312e+00 5.815338134765625888e+00 6.011463165283203125e+00 6.523954272270202637e-01 6.265801906585692471e+00 3.207993030548095703e+00 6.346378803253173828e+00 -1.883470177650451660e+00 5.362016677856445312e+00 3.365198612213134766e+00 -2.126425743103027344e+00 -3.512319922447204590e-01 6.704743385314941406e+00 6.811454296112059659e+00 8.508396148681640625e+00 1.889002203941345215e+00 3.355756044387817383e+00 2.972457647323608398e+00 4.121518611907958984e+00 2.956099808216093860e-01 5.073890686035156250e+00 5.502984523773193359e+00 5.537787437438964844e+00 4.893351197242737927e-01 4.457508087158203125e+00 -6.343146562576291725e-01 8.186958312988281250e+00 4.851914405822754794e+00 4.506981849670410156e+00 6.789185523986816406e+00 5.232791900634765625e+00 -4.638145267963409424e-01 1.534512877464294656e+00 3.900919198989868164e+00