-6.997541992187500000e+03
-6.996007812500000000e+03
-6.995606933593750000e+03
-6.994627929687500000e+03
-6.993690917968750000e+03
-6.992438476562500000e+03
-6.992283691406250000e+03
-6.992093261718750000e+03
-6.992022460937500000e+03
-6.991763671875000000e+03
-6.991666503906250000e+03
-6.991617675781250000e+03
-6.991343750000000000e+03
-6.991172851562500000e+03
-6.991198242187500000e+03
-6.991390136718750000e+03
-6.991119140625000000e+03
-6.991046386718750000e+03
-6.990855468750000000e+03
-6.990891601562500000e+03
-6.990931152343750000e+03
-6.990975585937500000e+03
-6.991040527343750000e+03
-6.991074707031250000e+03
-6.991087890625000000e+03
-6.991098144531250000e+03
-6.991104492187500000e+03
-6.991107421875000000e+03
-6.990919433593750000e+03
-6.990603027343750000e+03
-6.990348144531250000e+03
-6.990251464843750000e+03
-6.989742675781250000e+03
-6.989700195312500000e+03
-6.989706542968750000e+03
-6.989813476562500000e+03
-6.989860351562500000e+03
-6.989910156250000000e+03
-6.990004882812500000e+03
-6.990065429687500000e+03
-6.990083496093750000e+03
-6.990137695312500000e+03
-6.990265625000000000e+03
-6.990444824218750000e+03
-6.990757812500000000e+03
-6.990824218750000000e+03
-6.990949707031250000e+03
-6.991102050781250000e+03
-6.991186035156250000e+03
-6.991195312500000000e+03
-6.991087402343750000e+03
-6.990975585937500000e+03
-6.990655761718750000e+03
-6.989490722656250000e+03
-6.989246093750000000e+03
-6.989114257812500000e+03
-6.989058105468750000e+03
-6.989000976562500000e+03
-6.988904785156250000e+03
-6.988743652343750000e+03
-6.988540527343750000e+03
-6.988500000000000000e+03
-6.988409179687500000e+03
-6.988240234375000000e+03
-6.987846191406250000e+03
-6.987647949218750000e+03
-6.987322265625000000e+03
-6.986796875000000000e+03
-6.986415527343750000e+03
-6.986554687500000000e+03
-6.986604492187500000e+03
-6.986580566406250000e+03
-6.986564941406250000e+03
-6.986453125000000000e+03
-6.986020019531250000e+03
-6.985964355468750000e+03
-6.985703125000000000e+03
-6.985667968750000000e+03
-6.984920410156250000e+03
-6.984861328125000000e+03
-6.984806152343750000e+03
-6.984404296875000000e+03
-6.984378417968750000e+03
-6.983490722656250000e+03
-6.982966796875000000e+03
-6.982321289062500000e+03
-6.982335937500000000e+03
-6.982319824218750000e+03
-6.981828125000000000e+03
-6.981762207031250000e+03
-6.981555175781250000e+03
-6.981272460937500000e+03
-6.980885253906250000e+03
-6.980831054687500000e+03
-6.980781250000000000e+03
-6.980660156250000000e+03
-6.980603027343750000e+03
-6.980624511718750000e+03
-6.980653320312500000e+03
-6.980730957031250000e+03
-6.980834472656250000e+03
-6.981103027343750000e+03
-6.981254882812500000e+03
-6.981703125000000000e+03
-6.981980957031250000e+03
-6.982003417968750000e+03
-6.981863769531250000e+03
-6.980922363281250000e+03
-6.980862304687500000e+03
-6.980792968750000000e+03
-6.980786132812500000e+03
-6.980881347656250000e+03
-6.980947753906250000e+03
-6.981419921875000000e+03
-6.981934570312500000e+03
-6.981957519531250000e+03
-6.981964843750000000e+03
-6.981893554687500000e+03
-6.981225585937500000e+03
-6.981184570312500000e+03
-6.981334960937500000e+03
-6.981556152343750000e+03
-6.982804687500000000e+03
-6.982780761718750000e+03
-6.982686035156250000e+03
-6.982445312500000000e+03
-6.982383300781250000e+03
-6.982322265625000000e+03
-6.981985839843750000e+03
-6.981983398437500000e+03
-6.981494628906250000e+03
-6.981411621093750000e+03
-6.981165039062500000e+03
-6.980929199218750000e+03
-6.980888183593750000e+03
-6.981312500000000000e+03
-6.981848632812500000e+03
-6.982584960937500000e+03
-6.982649414062500000e+03
-6.982591308593750000e+03
-6.982029785156250000e+03
-6.980800292968750000e+03
-6.980738281250000000e+03
-6.980679199218750000e+03
-6.980476562500000000e+03
-6.980287109375000000e+03
-6.980309570312500000e+03
-6.980948730468750000e+03
-6.981221679687500000e+03
-6.981649902343750000e+03
-6.982560546875000000e+03
-6.982846191406250000e+03
-6.982980957031250000e+03
-6.982978515625000000e+03
-6.982892578125000000e+03
-6.982831542968750000e+03
-6.982749511718750000e+03
-6.982384277343750000e+03
-6.982155273437500000e+03
-6.981926269531250000e+03
-6.981718750000000000e+03
-6.981564453125000000e+03
-6.981547851562500000e+03
-6.982416992187500000e+03
-6.982827148437500000e+03
-6.983448242187500000e+03
-6.983578613281250000e+03
-6.983512695312500000e+03
-6.983356445312500000e+03
-6.983119140625000000e+03
-6.982894531250000000e+03
-6.982922851562500000e+03
-6.983045410156250000e+03
-6.983208984375000000e+03
-6.983388671875000000e+03
-6.983448730468750000e+03
-6.983895507812500000e+03
-6.983919921875000000e+03
-6.983956054687500000e+03
-6.983818359375000000e+03
-6.983794921875000000e+03
-6.983761230468750000e+03
-6.983372558593750000e+03
-6.982982421875000000e+03
-6.982637207031250000e+03
-6.981768554687500000e+03
-6.981694824218750000e+03
-6.981666503906250000e+03
-6.981663574218750000e+03
-6.981714843750000000e+03
-6.981519531250000000e+03
-6.981429687500000000e+03
-6.981365234375000000e+03
-6.981323730468750000e+03
-6.981070800781250000e+03
-6.980952636718750000e+03
-6.980626953125000000e+03
-6.980963867187500000e+03
-6.981187988281250000e+03
-6.981492187500000000e+03
-6.982013183593750000e+03
-6.982160156250000000e+03
-6.982280761718750000e+03
-6.982382324218750000e+03
-6.982395019531250000e+03
-6.982336914062500000e+03
-6.981892578125000000e+03
-6.981123046875000000e+03
-6.981144042968750000e+03
-6.981164550781250000e+03
-6.981482910156250000e+03
-6.981199218750000000e+03
-6.981107421875000000e+03
-6.981062011718750000e+03
-6.980656250000000000e+03
-6.980564941406250000e+03
-6.979947265625000000e+03
-6.979876953125000000e+03
-6.979282714843750000e+03
-6.978890625000000000e+03
-6.978536132812500000e+03
-6.978451660156250000e+03
-6.978370117187500000e+03
-6.978079101562500000e+03
-6.978057617187500000e+03
-6.978182617187500000e+03
-6.978377929687500000e+03
-6.978972656250000000e+03
-6.979145996093750000e+03
-6.979238769531250000e+03
-6.979573242187500000e+03
-6.979531250000000000e+03
-6.979513183593750000e+03
-6.980007324218750000e+03
-6.980162109375000000e+03
-6.980238281250000000e+03
-6.980681640625000000e+03
-6.980680175781250000e+03
-6.980204589843750000e+03
-6.979732421875000000e+03
-6.979605468750000000e+03
-6.979228515625000000e+03
-6.978895019531250000e+03
-6.978639648437500000e+03
-6.978604003906250000e+03
-6.978607421875000000e+03
-6.978600097656250000e+03
-6.978554199218750000e+03
-6.978557617187500000e+03
-6.978562011718750000e+03
-6.978568359375000000e+03
-6.978626464843750000e+03
-6.978634765625000000e+03
-6.978610839843750000e+03
-6.978593750000000000e+03
-6.978515136718750000e+03
-6.978260253906250000e+03
-6.978091796875000000e+03
-6.978061523437500000e+03
-6.978038574218750000e+03
-6.978330566406250000e+03
-6.978496582031250000e+03
-6.978681640625000000e+03
-6.979105957031250000e+03
-6.979490234375000000e+03
-6.979736328125000000e+03
-6.979792480468750000e+03
-6.980209472656250000e+03
-6.980156250000000000e+03
-6.980132812500000000e+03
-6.980107910156250000e+03
-6.980008300781250000e+03
-6.979937011718750000e+03
-6.979796875000000000e+03
-6.979665527343750000e+03
-6.979337402343750000e+03
-6.979190429687500000e+03
-6.978727539062500000e+03
-6.978431152343750000e+03
-6.978910156250000000e+03
-6.978959472656250000e+03
-6.979385742187500000e+03
-6.979386230468750000e+03
-6.979359863281250000e+03
-6.979141601562500000e+03
-6.978680175781250000e+03
-6.978617187500000000e+03
-6.978610839843750000e+03
-6.979860351562500000e+03
-6.979995117187500000e+03
-6.980292968750000000e+03
-6.980306640625000000e+03
-6.980243164062500000e+03
-6.979736328125000000e+03
-6.979699707031250000e+03
-6.979651855468750000e+03
-6.979646484375000000e+03
-6.980736816406250000e+03
-6.980822265625000000e+03
-6.980854492187500000e+03
-6.980910156250000000e+03
-6.980720214843750000e+03
-6.980568359375000000e+03
-6.980556152343750000e+03
-6.980568847656250000e+03
-6.980715820312500000e+03
-6.980840332031250000e+03
-6.980833007812500000e+03
-6.980749511718750000e+03
-6.980620117187500000e+03
-6.980497070312500000e+03
-6.979978027343750000e+03
-6.978710449218750000e+03
-6.978440917968750000e+03
-6.978799804687500000e+03
-6.978896972656250000e+03
-6.979723632812500000e+03
-6.979841796875000000e+03
-6.979954101562500000e+03
-6.980483398437500000e+03
-6.980447753906250000e+03
-6.980203613281250000e+03
-6.979863281250000000e+03
-6.979705078125000000e+03
-6.979257812500000000e+03
-6.979266601562500000e+03
-6.979301269531250000e+03
-6.979327148437500000e+03
-6.979395507812500000e+03
-6.980159179687500000e+03
-6.980314453125000000e+03
-6.980932617187500000e+03
-6.981419921875000000e+03
-6.981433105468750000e+03
-6.981015625000000000e+03
-6.980819824218750000e+03
-6.980370117187500000e+03
-6.979670898437500000e+03
-6.979606445312500000e+03
-6.979481445312500000e+03
-6.980444335937500000e+03
-6.980636230468750000e+03
-6.980500000000000000e+03
-6.980130371093750000e+03
-6.978643554687500000e+03
-6.978962890625000000e+03
-6.979710449218750000e+03
-6.979787597656250000e+03
-6.979768066406250000e+03
-6.979725097656250000e+03
-6.979604492187500000e+03
-6.978836425781250000e+03
-6.978895507812500000e+03
-6.978948730468750000e+03
-6.980016113281250000e+03
-6.980256347656250000e+03
-6.980151367187500000e+03
-6.980126464843750000e+03
-6.980036132812500000e+03
-6.979959472656250000e+03
-6.979751464843750000e+03
-6.978757324218750000e+03
-6.978728027343750000e+03
-6.980826171875000000e+03
-6.980914062500000000e+03
-6.980685546875000000e+03
-6.980627441406250000e+03
-6.980388671875000000e+03
-6.980135253906250000e+03
-6.980012207031250000e+03
-6.979972656250000000e+03
-6.980472167968750000e+03
-6.981110351562500000e+03
-6.981338867187500000e+03
-6.981413574218750000e+03
-6.981624511718750000e+03
-6.981687500000000000e+03
-6.981942382812500000e+03
-6.981283691406250000e+03
-6.981579589843750000e+03
-6.981755859375000000e+03
-6.981898437500000000e+03
-6.981950683593750000e+03
-6.981916503906250000e+03
-6.981830078125000000e+03
-6.981791503906250000e+03
-6.981752441406250000e+03
-6.981709960937500000e+03
-6.981620605468750000e+03
-6.981012207031250000e+03
-6.980969726562500000e+03
-6.980962890625000000e+03
-6.980900390625000000e+03
-6.980870117187500000e+03
-6.980776367187500000e+03
-6.980713867187500000e+03
-6.980584960937500000e+03
-6.980630371093750000e+03
-6.981027832031250000e+03
-6.981113769531250000e+03
-6.981156738281250000e+03
-6.981241210937500000e+03
-6.981282226562500000e+03
-6.981360351562500000e+03
-6.981494628906250000e+03
-6.981617675781250000e+03
-6.981626953125000000e+03
-6.981632812500000000e+03
-6.981633300781250000e+03
-6.981574218750000000e+03
-6.981531250000000000e+03
-6.981347656250000000e+03
-6.981371093750000000e+03
-6.981636230468750000e+03
-6.981726562500000000e+03
-6.981770507812500000e+03
-6.981926269531250000e+03
-6.982021484375000000e+03
-6.981926269531250000e+03
-6.981773925781250000e+03
-6.980777343750000000e+03
-6.980721679687500000e+03
-6.980672851562500000e+03
-6.980572265625000000e+03
-6.980590820312500000e+03
-6.980796386718750000e+03
-6.980885742187500000e+03
-6.981265625000000000e+03
-6.981490722656250000e+03
-6.981552246093750000e+03
-6.981593261718750000e+03
-6.981553222656250000e+03
-6.981100097656250000e+03
-6.980635253906250000e+03
-6.980581054687500000e+03
-6.980561035156250000e+03
-6.980899902343750000e+03
-6.980985351562500000e+03
-6.981016113281250000e+03
-6.981220214843750000e+03
-6.981310058593750000e+03
-6.981481933593750000e+03
-6.981517089843750000e+03
-6.981723632812500000e+03
-6.981781738281250000e+03
-6.981863769531250000e+03
-6.981874511718750000e+03
-6.981827636718750000e+03
-6.981771484375000000e+03
-6.981610351562500000e+03
-6.981456542968750000e+03
-6.981126464843750000e+03
-6.980801757812500000e+03
-6.980782226562500000e+03
-6.980782226562500000e+03
-6.980833496093750000e+03
-6.980912597656250000e+03
-6.981461914062500000e+03
-6.981687011718750000e+03
-6.981829101562500000e+03
-6.981858398437500000e+03
-6.981838378906250000e+03
-6.981690917968750000e+03
-6.981331542968750000e+03
-6.981152832031250000e+03
-6.981062011718750000e+03
-6.980424316406250000e+03
-6.980517089843750000e+03
-6.980547363281250000e+03
-6.980581054687500000e+03
-6.980617187500000000e+03
-6.980656250000000000e+03
-6.981000000000000000e+03
-6.981183593750000000e+03
-6.981229980468750000e+03
-6.981193359375000000e+03
-6.981131347656250000e+03
-6.981125488281250000e+03
-6.981373046875000000e+03
-6.981504882812500000e+03
-6.981920410156250000e+03
-6.982009765625000000e+03
-6.982271484375000000e+03
-6.982688964843750000e+03
-6.982780273437500000e+03
-6.982845703125000000e+03
-6.982868652343750000e+03
-6.982895507812500000e+03
-6.982872558593750000e+03
-6.982795410156250000e+03
-6.982667968750000000e+03
-6.982492187500000000e+03
-6.982099609375000000e+03
-6.981338867187500000e+03
-6.980948730468750000e+03
-6.980664550781250000e+03
-6.980504394531250000e+03
-6.980064941406250000e+03
-6.979874023437500000e+03
-6.979815429687500000e+03
-6.979819824218750000e+03
-6.979813964843750000e+03
-6.979964843750000000e+03
-6.980156250000000000e+03
-6.980496093750000000e+03
-6.980787597656250000e+03
-6.981090332031250000e+03
-6.981485351562500000e+03
-6.982272460937500000e+03
-6.982467285156250000e+03
-6.982405273437500000e+03
-6.982255371093750000e+03
-6.981796875000000000e+03
-6.981655273437500000e+03
-6.981197753906250000e+03
-6.981047851562500000e+03
-6.980523925781250000e+03
-6.981085449218750000e+03
-6.981360839843750000e+03
-6.981842773437500000e+03
-6.982008300781250000e+03
-6.982068847656250000e+03
-6.982236816406250000e+03
-6.982206054687500000e+03
-6.981975097656250000e+03
-6.981632324218750000e+03
-6.980936523437500000e+03
-6.980884765625000000e+03
-6.980767089843750000e+03
-6.980973632812500000e+03
-6.981260742187500000e+03
-6.981320800781250000e+03
-6.981380859375000000e+03
-6.981546386718750000e+03
-6.981858886718750000e+03
-6.981857421875000000e+03
-6.981815429687500000e+03
-6.981804687500000000e+03
-6.981794433593750000e+03
-6.981518066406250000e+03
-6.981301269531250000e+03
-6.980590820312500000e+03
-6.980463867187500000e+03
-6.980241699218750000e+03
-6.980371582031250000e+03
-6.980464355468750000e+03
-6.980847167968750000e+03
-6.980954101562500000e+03
-6.980860839843750000e+03
-6.979579589843750000e+03
-6.979595703125000000e+03
-6.979585937500000000e+03
-6.979916015625000000e+03
-6.980570312500000000e+03
-6.980748535156250000e+03
-6.980829589843750000e+03
-6.980971191406250000e+03
-6.981029785156250000e+03
-6.981070800781250000e+03
-6.980396972656250000e+03
-6.980005859375000000e+03
-6.979870605468750000e+03
-6.980011230468750000e+03
-6.980143554687500000e+03
-6.980377929687500000e+03
-6.980869628906250000e+03
-6.980925781250000000e+03
-6.980957031250000000e+03
-6.980930175781250000e+03
-6.980930664062500000e+03
-6.980936035156250000e+03
-6.981004394531250000e+03
-6.981079589843750000e+03
-6.981100097656250000e+03
-6.980573730468750000e+03
-6.979916015625000000e+03
-6.979790527343750000e+03
-6.979785156250000000e+03
-6.979812988281250000e+03
-6.979878906250000000e+03
-6.979908203125000000e+03
-6.980191406250000000e+03
-6.980500488281250000e+03
-6.980537597656250000e+03
-6.980547851562500000e+03
-6.980553710937500000e+03
-6.980553222656250000e+03
-6.980520996093750000e+03
-6.980415039062500000e+03
-6.980379882812500000e+03
-6.979564941406250000e+03
-6.979392578125000000e+03
-6.979335937500000000e+03
-6.979280273437500000e+03
-6.979174804687500000e+03
-6.978917968750000000e+03
-6.978903320312500000e+03
-6.978894042968750000e+03
-6.978935058593750000e+03
-6.979038085937500000e+03
-6.979520996093750000e+03
-6.979668457031250000e+03
-6.979887695312500000e+03
-6.980079589843750000e+03
-6.980133789062500000e+03
-6.980182617187500000e+03
-6.980330078125000000e+03
-6.980322265625000000e+03
-6.980864746093750000e+03
-6.981220703125000000e+03
-6.981413085937500000e+03
-6.981687500000000000e+03
-6.981725097656250000e+03
-6.980913085937500000e+03
-6.980708496093750000e+03
-6.980482910156250000e+03
-6.980606445312500000e+03
-6.980532714843750000e+03
-6.980443359375000000e+03
-6.980385253906250000e+03
-6.980162597656250000e+03
-6.979394042968750000e+03
-6.979228515625000000e+03
-6.978950195312500000e+03
-6.978928710937500000e+03
-6.978942382812500000e+03
-6.978943847656250000e+03
-6.978849609375000000e+03
-6.978743164062500000e+03
-6.978576660156250000e+03
-6.978367675781250000e+03
-6.978990722656250000e+03
-6.979149414062500000e+03
-6.979266113281250000e+03
-6.979335449218750000e+03
-6.979401367187500000e+03
-6.979393066406250000e+03
-6.979374511718750000e+03
-6.979508789062500000e+03
-6.979606445312500000e+03
-6.979813964843750000e+03
-6.980085449218750000e+03
-6.980131347656250000e+03
-6.980109375000000000e+03
-6.980080078125000000e+03
-6.979996093750000000e+03
-6.979613769531250000e+03
-6.979174316406250000e+03
-6.979067382812500000e+03
-6.979092285156250000e+03
-6.979117187500000000e+03
-6.979151367187500000e+03
-6.979246582031250000e+03
-6.979939941406250000e+03
-6.980278808593750000e+03
-6.980804687500000000e+03
-6.980791503906250000e+03
-6.980524414062500000e+03
-6.980185546875000000e+03
-6.980093750000000000e+03
-6.979777343750000000e+03
-6.979653320312500000e+03
-6.979673339843750000e+03
-6.979902343750000000e+03
-6.980097167968750000e+03
-6.980084472656250000e+03
-6.979994628906250000e+03
-6.979672851562500000e+03
-6.979711425781250000e+03
-6.979916503906250000e+03
-6.980131347656250000e+03
-6.980209472656250000e+03
-6.980288574218750000e+03
-6.980945800781250000e+03
-6.981119140625000000e+03
-6.981226562500000000e+03
-6.981279296875000000e+03
-6.981552246093750000e+03
-6.982371582031250000e+03
-6.982427246093750000e+03
-6.982665039062500000e+03
-6.983089843750000000e+03
-6.983355468750000000e+03
-6.983508300781250000e+03
-6.982764648437500000e+03
-6.982436035156250000e+03
-6.982264160156250000e+03
-6.981033203125000000e+03
-6.981013183593750000e+03
-6.981132324218750000e+03
-6.981576171875000000e+03
-6.982077636718750000e+03
-6.982160156250000000e+03
-6.982178710937500000e+03
-6.982119140625000000e+03
-6.981936523437500000e+03
-6.981667968750000000e+03
-6.980692382812500000e+03
-6.980376464843750000e+03
-6.980014160156250000e+03
-6.979931640625000000e+03
-6.979836425781250000e+03
-6.979819335937500000e+03
-6.979823242187500000e+03
-6.980009765625000000e+03
-6.980177246093750000e+03
-6.980315429687500000e+03
-6.980392089843750000e+03
-6.981313964843750000e+03
-6.981497070312500000e+03
-6.981812988281250000e+03
-6.981992675781250000e+03
-6.982090332031250000e+03
-6.982099609375000000e+03
-6.982046386718750000e+03
-6.981984863281250000e+03
-6.981879394531250000e+03
-6.981878417968750000e+03
-6.981976074218750000e+03
-6.982562011718750000e+03
-6.983044921875000000e+03
-6.983060546875000000e+03
-6.982653320312500000e+03
-6.982265136718750000e+03
-6.981338867187500000e+03
-6.981193359375000000e+03
-6.980909667968750000e+03
-6.980348144531250000e+03
-6.980186035156250000e+03
-6.980436035156250000e+03
-6.980511230468750000e+03
-6.980742187500000000e+03
-6.981141601562500000e+03
-6.981206542968750000e+03
-6.981312988281250000e+03
-6.981380371093750000e+03
-6.981478027343750000e+03
-6.981594238281250000e+03
-6.981786621093750000e+03
-6.981943359375000000e+03
-6.982145019531250000e+03
-6.982014648437500000e+03
-6.982160156250000000e+03
-6.982457031250000000e+03
-6.982049316406250000e+03
-6.981885742187500000e+03
-6.981375000000000000e+03
-6.981415039062500000e+03
-6.981461914062500000e+03
-6.981766113281250000e+03
-6.981831542968750000e+03
-6.982068359375000000e+03
-6.982187500000000000e+03
-6.982059570312500000e+03
-6.981942871093750000e+03
-6.981384765625000000e+03
-6.981008789062500000e+03
-6.980722656250000000e+03
-6.980628417968750000e+03
-6.979584472656250000e+03
-6.979110351562500000e+03
-6.978798339843750000e+03
-6.978752441406250000e+03
-6.978712402343750000e+03
-6.978579101562500000e+03
-6.978605468750000000e+03
-6.978615722656250000e+03
-6.978401367187500000e+03
-6.977946777343750000e+03
-6.977894531250000000e+03
-6.977849609375000000e+03
-6.977760742187500000e+03
-6.979061035156250000e+03
-6.979351074218750000e+03
-6.979460449218750000e+03
-6.979502929687500000e+03
-6.979515136718750000e+03
-6.979479980468750000e+03
-6.979296386718750000e+03
-6.978861328125000000e+03
-6.978590820312500000e+03
-6.978421875000000000e+03
-6.978313964843750000e+03
-6.978570312500000000e+03
-6.978827148437500000e+03
-6.979019531250000000e+03
-6.979966308593750000e+03
-6.979829101562500000e+03
-6.979815429687500000e+03
-6.979806152343750000e+03
-6.980020019531250000e+03
-6.979990234375000000e+03
-6.979958984375000000e+03
-6.978795898437500000e+03
-6.978727050781250000e+03
-6.978665527343750000e+03
-6.978574218750000000e+03
-6.978748046875000000e+03
-6.978830078125000000e+03
-6.979439941406250000e+03
-6.979543945312500000e+03
-6.979833007812500000e+03
-6.980314453125000000e+03
-6.980684082031250000e+03
-6.980746582031250000e+03
-6.980453125000000000e+03
-6.980176269531250000e+03
-6.980066406250000000e+03
-6.979706054687500000e+03
-6.979580566406250000e+03
-6.978619628906250000e+03
-6.978529296875000000e+03
-6.978495605468750000e+03
-6.978391113281250000e+03
-6.978323730468750000e+03
-6.978233886718750000e+03
-6.978177734375000000e+03
-6.978155273437500000e+03
-6.978162597656250000e+03
-6.978175781250000000e+03
-6.978478515625000000e+03
-6.978729980468750000e+03
-6.978812988281250000e+03
-6.978928710937500000e+03
-6.979327148437500000e+03
-6.979382812500000000e+03
-6.979479492187500000e+03
-6.979553710937500000e+03
-6.979592773437500000e+03
-6.979633300781250000e+03
-6.979718261718750000e+03
-6.979761718750000000e+03
-6.979804687500000000e+03
-6.979848144531250000e+03
-6.979891113281250000e+03
-6.979933105468750000e+03
-6.980447753906250000e+03
-6.980459472656250000e+03
-6.980436523437500000e+03
-6.980407714843750000e+03
-6.980287109375000000e+03
-6.980131835937500000e+03
-6.979704101562500000e+03
-6.979697753906250000e+03
-6.979881347656250000e+03
-6.979914550781250000e+03
-6.980016113281250000e+03
-6.979982910156250000e+03
-6.979737792968750000e+03
-6.979921386718750000e+03
-6.979771972656250000e+03
-6.979761718750000000e+03
-6.979764648437500000e+03
-6.979777832031250000e+03
-6.979856933593750000e+03
-6.980145019531250000e+03
-6.980194335937500000e+03
-6.980063476562500000e+03
-6.979191894531250000e+03
-6.979062500000000000e+03
-6.979148925781250000e+03
-6.979647460937500000e+03
-6.979821777343750000e+03
-6.980078125000000000e+03
-6.980171875000000000e+03
-6.980430175781250000e+03
-6.980567382812500000e+03
-6.980945312500000000e+03
-6.980968261718750000e+03
-6.981020996093750000e+03
-6.980976074218750000e+03
-6.980645507812500000e+03
-6.979857421875000000e+03
-6.979495605468750000e+03
-6.979376464843750000e+03
-6.979151855468750000e+03
-6.978734375000000000e+03
-6.979313476562500000e+03
-6.979592773437500000e+03
-6.980715332031250000e+03
-6.980936523437500000e+03
-6.981253906250000000e+03
-6.981352050781250000e+03
-6.981399414062500000e+03
-6.981016601562500000e+03
-6.979874023437500000e+03
-6.980452148437500000e+03
-6.980016601562500000e+03
-6.979924804687500000e+03
-6.979832031250000000e+03
-6.979233398437500000e+03
-6.979253906250000000e+03
-6.979366210937500000e+03
-6.979434570312500000e+03
-6.979506835937500000e+03
-6.979459960937500000e+03
-6.979410156250000000e+03
-6.979547851562500000e+03
-6.979657226562500000e+03
-6.979780761718750000e+03
-6.979722167968750000e+03
-6.979606445312500000e+03
-6.979462890625000000e+03
-6.979314453125000000e+03
-6.979042480468750000e+03
-6.978991210937500000e+03
-6.979113281250000000e+03
-6.979255371093750000e+03
-6.979265136718750000e+03
-6.979291015625000000e+03
-6.979150878906250000e+03
-6.979119628906250000e+03
-6.979051269531250000e+03
-6.978942382812500000e+03
-6.978617675781250000e+03
-6.978590820312500000e+03
-6.978413085937500000e+03
-6.978373535156250000e+03
-6.978401855468750000e+03
-6.978435058593750000e+03
-6.978504394531250000e+03
-6.978586914062500000e+03
-6.978600585937500000e+03
-6.978845703125000000e+03
-6.978957519531250000e+03
-6.978999511718750000e+03
-6.979040039062500000e+03
-6.979177246093750000e+03
-6.979272460937500000e+03
-6.979578613281250000e+03
-6.979779785156250000e+03
-6.979871093750000000e+03
-6.979952636718750000e+03
-6.980050781250000000e+03
-6.980096679687500000e+03
-6.980112792968750000e+03
-6.980124023437500000e+03
-6.980133300781250000e+03
-6.980121582031250000e+03
-6.980067871093750000e+03
-6.979949218750000000e+03
-6.979771972656250000e+03
-6.979749511718750000e+03
-6.979809570312500000e+03
-6.979870605468750000e+03
-6.979905273437500000e+03
-6.979940429687500000e+03
-6.980071289062500000e+03
-6.979939941406250000e+03
-6.979854980468750000e+03
-6.979642578125000000e+03
-6.979526855468750000e+03
-6.979498046875000000e+03
-6.979535156250000000e+03
-6.979582031250000000e+03
-6.979610839843750000e+03
-6.979709472656250000e+03
-6.979743652343750000e+03
-6.979977050781250000e+03
-6.979994628906250000e+03
-6.979993164062500000e+03
-6.979865234375000000e+03
-6.979707519531250000e+03
-6.979493164062500000e+03
-6.979381835937500000e+03
-6.979065429687500000e+03
-6.978733886718750000e+03
-6.978500488281250000e+03
-6.978442871093750000e+03
-6.977864746093750000e+03
-6.977840332031250000e+03
-6.977787109375000000e+03
-6.977843261718750000e+03
-6.977932617187500000e+03
-6.977973144531250000e+03
-6.977989746093750000e+03
-6.977931152343750000e+03
-6.977832519531250000e+03
-6.977771972656250000e+03
-6.977754394531250000e+03
-6.977702636718750000e+03
-6.977696777343750000e+03
-6.977702148437500000e+03
-6.977800781250000000e+03
-6.977852539062500000e+03
-6.977942382812500000e+03
-6.978225097656250000e+03
-6.978299804687500000e+03
-6.978377441406250000e+03
-6.978385253906250000e+03
-6.978387695312500000e+03
-6.978312988281250000e+03
-6.978298828125000000e+03
-6.978222167968750000e+03
-6.978219238281250000e+03
-6.978245605468750000e+03
-6.978260253906250000e+03
-6.978276855468750000e+03
-6.978345214843750000e+03
-6.978372558593750000e+03
