-6.064733203125000000e+04
-6.063643359375000000e+04
-6.063325000000000000e+04
-6.062474218750000000e+04
-6.061556250000000000e+04
-6.060627734375000000e+04
-6.060486718750000000e+04
-6.060282421875000000e+04
-6.060223437500000000e+04
-6.060073828125000000e+04
-6.060035546875000000e+04
-6.060018750000000000e+04
-6.059945312500000000e+04
-6.059887500000000000e+04
-6.059862109375000000e+04
-6.059786328125000000e+04
-6.059792968750000000e+04
-6.059820312500000000e+04
-6.059963281250000000e+04
-6.060069921875000000e+04
-6.060098046875000000e+04
-6.060119921875000000e+04
-6.060138671875000000e+04
-6.060141406250000000e+04
-6.060139843750000000e+04
-6.060136718750000000e+04
-6.060131640625000000e+04
-6.060125781250000000e+04
-6.060066015625000000e+04
-6.060112109375000000e+04
-6.060171875000000000e+04
-6.060189843750000000e+04
-6.059826171875000000e+04
-6.059676953125000000e+04
-6.059669531250000000e+04
-6.059626953125000000e+04
-6.059616406250000000e+04
-6.059607812500000000e+04
-6.059594140625000000e+04
-6.059590625000000000e+04
-6.059590625000000000e+04
-6.059594531250000000e+04
-6.059612109375000000e+04
-6.059641015625000000e+04
-6.059698046875000000e+04
-6.059711718750000000e+04
-6.059740625000000000e+04
-6.059785546875000000e+04
-6.059828125000000000e+04
-6.059840625000000000e+04
-6.059887109375000000e+04
-6.059896484375000000e+04
-6.059899218750000000e+04
-6.059821093750000000e+04
-6.059792968750000000e+04
-6.059777734375000000e+04
-6.059786718750000000e+04
-6.059833984375000000e+04
-6.059854296875000000e+04
-6.059864843750000000e+04
-6.059863671875000000e+04
-6.059862890625000000e+04
-6.059861718750000000e+04
-6.059860156250000000e+04
-6.059860156250000000e+04
-6.059861718750000000e+04
-6.059868359375000000e+04
-6.059889843750000000e+04
-6.059939843750000000e+04
-6.059992578125000000e+04
-6.059996484375000000e+04
-6.059989453125000000e+04
-6.059986328125000000e+04
-6.059965234375000000e+04
-6.059856640625000000e+04
-6.059841406250000000e+04
-6.059776953125000000e+04
-6.059773828125000000e+04
-6.059871875000000000e+04
-6.059877734375000000e+04
-6.059883593750000000e+04
-6.059896093750000000e+04
-6.059889843750000000e+04
-6.059733593750000000e+04
-6.059670703125000000e+04
-6.059549218750000000e+04
-6.059548046875000000e+04
-6.059563281250000000e+04
-6.059720703125000000e+04
-6.059740625000000000e+04
-6.059801562500000000e+04
-6.059876562500000000e+04
-6.059957031250000000e+04
-6.059964843750000000e+04
-6.059970703125000000e+04
-6.059977343750000000e+04
-6.059939843750000000e+04
-6.059931250000000000e+04
-6.059922265625000000e+04
-6.059904296875000000e+04
-6.059886718750000000e+04
-6.059858203125000000e+04
-6.059847265625000000e+04
-6.059831640625000000e+04
-6.059851562500000000e+04
-6.059867578125000000e+04
-6.059925781250000000e+04
-6.060092187500000000e+04
-6.060104687500000000e+04
-6.060125781250000000e+04
-6.060134375000000000e+04
-6.060150781250000000e+04
-6.060153125000000000e+04
-6.060138671875000000e+04
-6.060060156250000000e+04
-6.060044921875000000e+04
-6.060029296875000000e+04
-6.059979687500000000e+04
-6.059831250000000000e+04
-6.059816796875000000e+04
-6.059758984375000000e+04
-6.059744140625000000e+04
-6.059768750000000000e+04
-6.059824218750000000e+04
-6.059841406250000000e+04
-6.059867187500000000e+04
-6.059871484375000000e+04
-6.059875000000000000e+04
-6.059791406250000000e+04
-6.059781250000000000e+04
-6.059708593750000000e+04
-6.059708984375000000e+04
-6.059719531250000000e+04
-6.059753906250000000e+04
-6.059777343750000000e+04
-6.059880468750000000e+04
-6.059924218750000000e+04
-6.059912500000000000e+04
-6.059894140625000000e+04
-6.059822656250000000e+04
-6.059756250000000000e+04
-6.059894921875000000e+04
-6.059912109375000000e+04
-6.059928906250000000e+04
-6.059994921875000000e+04
-6.060060156250000000e+04
-6.060114843750000000e+04
-6.060127734375000000e+04
-6.060124609375000000e+04
-6.060114453125000000e+04
-6.060063281250000000e+04
-6.060034765625000000e+04
-6.060042968750000000e+04
-6.060057421875000000e+04
-6.060117187500000000e+04
-6.060137890625000000e+04
-6.060156640625000000e+04
-6.060196875000000000e+04
-6.060203906250000000e+04
-6.060201171875000000e+04
-6.060189062500000000e+04
-6.060171484375000000e+04
-6.060107812500000000e+04
-6.059998046875000000e+04
-6.059942578125000000e+04
-6.059818750000000000e+04
-6.059767578125000000e+04
-6.059721875000000000e+04
-6.059723046875000000e+04
-6.059746093750000000e+04
-6.059869531250000000e+04
-6.059878906250000000e+04
-6.059903906250000000e+04
-6.059923046875000000e+04
-6.059935156250000000e+04
-6.059937500000000000e+04
-6.059924609375000000e+04
-6.059920703125000000e+04
-6.059911328125000000e+04
-6.059707812500000000e+04
-6.059696093750000000e+04
-6.059690234375000000e+04
-6.059820703125000000e+04
-6.059817578125000000e+04
-6.059789453125000000e+04
-6.059654296875000000e+04
-6.059614453125000000e+04
-6.059640625000000000e+04
-6.059652343750000000e+04
-6.059726953125000000e+04
-6.059698828125000000e+04
-6.059667187500000000e+04
-6.059641796875000000e+04
-6.059624218750000000e+04
-6.059541015625000000e+04
-6.059522265625000000e+04
-6.059497656250000000e+04
-6.059546484375000000e+04
-6.059549609375000000e+04
-6.059550000000000000e+04
-6.059515625000000000e+04
-6.059491406250000000e+04
-6.059464062500000000e+04
-6.059428515625000000e+04
-6.059421484375000000e+04
-6.059371875000000000e+04
-6.059349218750000000e+04
-6.059449609375000000e+04
-6.059496093750000000e+04
-6.059507812500000000e+04
-6.059653906250000000e+04
-6.059725000000000000e+04
-6.059734375000000000e+04
-6.059736718750000000e+04
-6.059691015625000000e+04
-6.059668359375000000e+04
-6.059574609375000000e+04
-6.059573828125000000e+04
-6.059619140625000000e+04
-6.059673437500000000e+04
-6.059733593750000000e+04
-6.059747656250000000e+04
-6.059761328125000000e+04
-6.059812109375000000e+04
-6.059835937500000000e+04
-6.059839453125000000e+04
-6.059839453125000000e+04
-6.059836328125000000e+04
-6.059837500000000000e+04
-6.059838281250000000e+04
-6.059675000000000000e+04
-6.059591796875000000e+04
-6.059582812500000000e+04
-6.059540234375000000e+04
-6.059523828125000000e+04
-6.059514453125000000e+04
-6.059449609375000000e+04
-6.059445703125000000e+04
-6.059426953125000000e+04
-6.059420703125000000e+04
-6.059420312500000000e+04
-6.059419531250000000e+04
-6.059425390625000000e+04
-6.059435937500000000e+04
-6.059422265625000000e+04
-6.059200781250000000e+04
-6.059172265625000000e+04
-6.058921093750000000e+04
-6.058913281250000000e+04
-6.058909375000000000e+04
-6.058908593750000000e+04
-6.059004687500000000e+04
-6.059054296875000000e+04
-6.059167578125000000e+04
-6.059196093750000000e+04
-6.059277343750000000e+04
-6.059405859375000000e+04
-6.059458203125000000e+04
-6.059467578125000000e+04
-6.059474218750000000e+04
-6.059490234375000000e+04
-6.059488671875000000e+04
-6.059489062500000000e+04
-6.059501171875000000e+04
-6.059537890625000000e+04
-6.059581640625000000e+04
-6.059593750000000000e+04
-6.059664843750000000e+04
-6.059546093750000000e+04
-6.059530078125000000e+04
-6.059514062500000000e+04
-6.059450000000000000e+04
-6.059408984375000000e+04
-6.059357421875000000e+04
-6.059351953125000000e+04
-6.059379296875000000e+04
-6.059392187500000000e+04
-6.059425000000000000e+04
-6.059441796875000000e+04
-6.059483984375000000e+04
-6.059485156250000000e+04
-6.059368750000000000e+04
-6.059355859375000000e+04
-6.059319140625000000e+04
-6.059263281250000000e+04
-6.059310156250000000e+04
-6.059350781250000000e+04
-6.059365234375000000e+04
-6.059421875000000000e+04
-6.059394140625000000e+04
-6.059294140625000000e+04
-6.059282421875000000e+04
-6.059238671875000000e+04
-6.059213671875000000e+04
-6.059213281250000000e+04
-6.059212500000000000e+04
-6.059213671875000000e+04
-6.059333203125000000e+04
-6.059352734375000000e+04
-6.059360546875000000e+04
-6.059374609375000000e+04
-6.059304687500000000e+04
-6.059286718750000000e+04
-6.059291015625000000e+04
-6.059332421875000000e+04
-6.059341406250000000e+04
-6.059328125000000000e+04
-6.059321093750000000e+04
-6.059298046875000000e+04
-6.059291796875000000e+04
-6.059294921875000000e+04
-6.059345312500000000e+04
-6.059512500000000000e+04
-6.059544531250000000e+04
-6.059487500000000000e+04
-6.059473046875000000e+04
-6.059342187500000000e+04
-6.059321093750000000e+04
-6.059299609375000000e+04
-6.059155078125000000e+04
-6.059033984375000000e+04
-6.058997265625000000e+04
-6.059000781250000000e+04
-6.059022265625000000e+04
-6.059295312500000000e+04
-6.059315234375000000e+04
-6.059352343750000000e+04
-6.059369921875000000e+04
-6.059400781250000000e+04
-6.059435937500000000e+04
-6.059414843750000000e+04
-6.059280468750000000e+04
-6.059126953125000000e+04
-6.059074609375000000e+04
-6.059066796875000000e+04
-6.059072656250000000e+04
-6.059092578125000000e+04
-6.059137500000000000e+04
-6.059143359375000000e+04
-6.059164843750000000e+04
-6.059164843750000000e+04
-6.059109765625000000e+04
-6.059084375000000000e+04
-6.059054687500000000e+04
-6.059230859375000000e+04
-6.059256640625000000e+04
-6.059099609375000000e+04
-6.059068359375000000e+04
-6.059028125000000000e+04
-6.059032812500000000e+04
-6.059052734375000000e+04
-6.059314062500000000e+04
-6.059399218750000000e+04
-6.059415234375000000e+04
-6.059374609375000000e+04
-6.059241406250000000e+04
-6.059219921875000000e+04
-6.059223437500000000e+04
-6.059237890625000000e+04
-6.059249609375000000e+04
-6.059274609375000000e+04
-6.059323828125000000e+04
-6.059324609375000000e+04
-6.059122265625000000e+04
-6.059106640625000000e+04
-6.059086328125000000e+04
-6.059086328125000000e+04
-6.059082031250000000e+04
-6.059060156250000000e+04
-6.059029296875000000e+04
-6.059003515625000000e+04
-6.059159375000000000e+04
-6.059393750000000000e+04
-6.059455078125000000e+04
-6.059471093750000000e+04
-6.059507812500000000e+04
-6.059514843750000000e+04
-6.059470703125000000e+04
-6.058932421875000000e+04
-6.058926171875000000e+04
-6.058934765625000000e+04
-6.058950000000000000e+04
-6.058977734375000000e+04
-6.059011718750000000e+04
-6.059040234375000000e+04
-6.059050000000000000e+04
-6.059059765625000000e+04
-6.059069140625000000e+04
-6.059086718750000000e+04
-6.059024218750000000e+04
-6.058960156250000000e+04
-6.058950390625000000e+04
-6.058922265625000000e+04
-6.058926171875000000e+04
-6.058951562500000000e+04
-6.058968359375000000e+04
-6.058984375000000000e+04
-6.058958203125000000e+04
-6.059007421875000000e+04
-6.059025000000000000e+04
-6.059033203125000000e+04
-6.059048437500000000e+04
-6.059055859375000000e+04
-6.059067187500000000e+04
-6.059076953125000000e+04
-6.059051562500000000e+04
-6.059042968750000000e+04
-6.059033593750000000e+04
-6.059013671875000000e+04
-6.058958593750000000e+04
-6.058939843750000000e+04
-6.058929296875000000e+04
-6.058936328125000000e+04
-6.058992968750000000e+04
-6.059010937500000000e+04
-6.059019140625000000e+04
-6.059044921875000000e+04
-6.059051171875000000e+04
-6.059027734375000000e+04
-6.058997656250000000e+04
-6.058880468750000000e+04
-6.058876953125000000e+04
-6.058875000000000000e+04
-6.058884375000000000e+04
-6.058884375000000000e+04
-6.058869531250000000e+04
-6.058853125000000000e+04
-6.058733593750000000e+04
-6.058667968750000000e+04
-6.058689843750000000e+04
-6.058730468750000000e+04
-6.058826562500000000e+04
-6.058873046875000000e+04
-6.058886328125000000e+04
-6.058886718750000000e+04
-6.058885546875000000e+04
-6.058873437500000000e+04
-6.058875390625000000e+04
-6.058885937500000000e+04
-6.058937109375000000e+04
-6.058942187500000000e+04
-6.058939062500000000e+04
-6.058937890625000000e+04
-6.058916406250000000e+04
-6.058908984375000000e+04
-6.058893359375000000e+04
-6.058889843750000000e+04
-6.058871093750000000e+04
-6.058870703125000000e+04
-6.058876171875000000e+04
-6.058880468750000000e+04
-6.058877343750000000e+04
-6.058792578125000000e+04
-6.058774218750000000e+04
-6.058664453125000000e+04
-6.058619921875000000e+04
-6.058578125000000000e+04
-6.058456640625000000e+04
-6.058447265625000000e+04
-6.058463281250000000e+04
-6.058478906250000000e+04
-6.058510156250000000e+04
-6.058544140625000000e+04
-6.058574609375000000e+04
-6.058585546875000000e+04
-6.058591406250000000e+04
-6.058724609375000000e+04
-6.058792578125000000e+04
-6.058805468750000000e+04
-6.058817968750000000e+04
-6.058829296875000000e+04
-6.058839062500000000e+04
-6.058889843750000000e+04
-6.058870703125000000e+04
-6.058820703125000000e+04
-6.058615625000000000e+04
-6.058625390625000000e+04
-6.058626171875000000e+04
-6.058582812500000000e+04
-6.058559765625000000e+04
-6.058489062500000000e+04
-6.058474218750000000e+04
-6.058433593750000000e+04
-6.058404687500000000e+04
-6.058418359375000000e+04
-6.058444921875000000e+04
-6.058463281250000000e+04
-6.058563281250000000e+04
-6.058623828125000000e+04
-6.058716406250000000e+04
-6.058798828125000000e+04
-6.058860937500000000e+04
-6.058903125000000000e+04
-6.058821875000000000e+04
-6.058733984375000000e+04
-6.058644140625000000e+04
-6.058653515625000000e+04
-6.058597265625000000e+04
-6.058560937500000000e+04
-6.058548046875000000e+04
-6.058478906250000000e+04
-6.058464062500000000e+04
-6.058441406250000000e+04
-6.058433203125000000e+04
-6.058419921875000000e+04
-6.058404296875000000e+04
-6.058384375000000000e+04
-6.058362500000000000e+04
-6.058414453125000000e+04
-6.058485156250000000e+04
-6.058691796875000000e+04
-6.058713671875000000e+04
-6.058732421875000000e+04
-6.058732421875000000e+04
-6.058723828125000000e+04
-6.058717578125000000e+04
-6.058601562500000000e+04
-6.058528906250000000e+04
-6.058503906250000000e+04
-6.058464453125000000e+04
-6.058452343750000000e+04
-6.058448437500000000e+04
-6.058450390625000000e+04
-6.058455468750000000e+04
-6.058489453125000000e+04
-6.058535546875000000e+04
-6.058635546875000000e+04
-6.058642968750000000e+04
-6.058662109375000000e+04
-6.058690625000000000e+04
-6.058710937500000000e+04
-6.058717968750000000e+04
-6.058726562500000000e+04
-6.058752734375000000e+04
-6.058819531250000000e+04
-6.058818359375000000e+04
-6.058776171875000000e+04
-6.058764453125000000e+04
-6.058751953125000000e+04
-6.058472265625000000e+04
-6.058430468750000000e+04
-6.058375781250000000e+04
-6.058374609375000000e+04
-6.058375000000000000e+04
-6.058446875000000000e+04
-6.058460937500000000e+04
-6.058539453125000000e+04
-6.058587109375000000e+04
-6.058628906250000000e+04
-6.058528906250000000e+04
-6.058529296875000000e+04
-6.058533203125000000e+04
-6.058589453125000000e+04
-6.058628515625000000e+04
-6.058629296875000000e+04
-6.058628906250000000e+04
-6.058625390625000000e+04
-6.058621484375000000e+04
-6.058580859375000000e+04
-6.058562890625000000e+04
-6.058561718750000000e+04
-6.058561328125000000e+04
-6.058568750000000000e+04
-6.058573828125000000e+04
-6.058583203125000000e+04
-6.058612109375000000e+04
-6.058617578125000000e+04
-6.058624218750000000e+04
-6.058666015625000000e+04
-6.058671093750000000e+04
-6.058677343750000000e+04
-6.058684765625000000e+04
-6.058657421875000000e+04
-6.058606640625000000e+04
-6.058360937500000000e+04
-6.058312890625000000e+04
-6.058348437500000000e+04
-6.058367187500000000e+04
-6.058391796875000000e+04
-6.058410937500000000e+04
-6.058414843750000000e+04
-6.058420703125000000e+04
-6.058388281250000000e+04
-6.058380859375000000e+04
-6.058379296875000000e+04
-6.058378515625000000e+04
-6.058378515625000000e+04
-6.058384765625000000e+04
-6.058412890625000000e+04
-6.058421875000000000e+04
-6.058606640625000000e+04
-6.058621484375000000e+04
-6.058624609375000000e+04
-6.058627343750000000e+04
-6.058630468750000000e+04
-6.058635546875000000e+04
-6.058636328125000000e+04
-6.058640625000000000e+04
-6.058650000000000000e+04
-6.058666015625000000e+04
-6.058756250000000000e+04
-6.058786718750000000e+04
-6.058830468750000000e+04
-6.058869140625000000e+04
-6.058879687500000000e+04
-6.058889843750000000e+04
-6.058917968750000000e+04
-6.058915625000000000e+04
-6.058687890625000000e+04
-6.058611718750000000e+04
-6.058565625000000000e+04
-6.058468750000000000e+04
-6.058379296875000000e+04
-6.058229687500000000e+04
-6.058232031250000000e+04
-6.058256250000000000e+04
-6.058309375000000000e+04
-6.058318750000000000e+04
-6.058326562500000000e+04
-6.058332031250000000e+04
-6.058353125000000000e+04
-6.058451562500000000e+04
-6.058485546875000000e+04
-6.058594921875000000e+04
-6.058662500000000000e+04
-6.058704687500000000e+04
-6.058728125000000000e+04
-6.058794531250000000e+04
-6.058801171875000000e+04
-6.058812890625000000e+04
-6.058805078125000000e+04
-6.058717968750000000e+04
-6.058701171875000000e+04
-6.058694140625000000e+04
-6.058739843750000000e+04
-6.058849609375000000e+04
-6.058861718750000000e+04
-6.058882421875000000e+04
-6.058864843750000000e+04
-6.058852734375000000e+04
-6.058830859375000000e+04
-6.058782421875000000e+04
-6.058666796875000000e+04
-6.058642968750000000e+04
-6.058616796875000000e+04
-6.058558203125000000e+04
-6.058358203125000000e+04
-6.058171484375000000e+04
-6.058130078125000000e+04
-6.058137500000000000e+04
-6.058146093750000000e+04
-6.058156250000000000e+04
-6.058181640625000000e+04
-6.058357812500000000e+04
-6.058427343750000000e+04
-6.058462890625000000e+04
-6.058389843750000000e+04
-6.058243359375000000e+04
-6.058132031250000000e+04
-6.058105859375000000e+04
-6.058012109375000000e+04
-6.057937500000000000e+04
-6.057928906250000000e+04
-6.057914062500000000e+04
-6.057946093750000000e+04
-6.057951562500000000e+04
-6.057972265625000000e+04
-6.058030468750000000e+04
-6.058071875000000000e+04
-6.058097265625000000e+04
-6.058111718750000000e+04
-6.058117187500000000e+04
-6.058122265625000000e+04
-6.058166015625000000e+04
-6.058180859375000000e+04
-6.058193359375000000e+04
-6.058200390625000000e+04
-6.058237109375000000e+04
-6.058308984375000000e+04
-6.058312890625000000e+04
-6.058339843750000000e+04
-6.058435546875000000e+04
-6.058485937500000000e+04
-6.058561328125000000e+04
-6.058620312500000000e+04
-6.058639062500000000e+04
-6.058649218750000000e+04
-6.058723046875000000e+04
-6.058725000000000000e+04
-6.058715234375000000e+04
-6.058661328125000000e+04
-6.058540625000000000e+04
-6.058492187500000000e+04
-6.058417578125000000e+04
-6.058371093750000000e+04
-6.058310156250000000e+04
-6.058266406250000000e+04
-6.058258984375000000e+04
-6.058308203125000000e+04
-6.058431640625000000e+04
-6.058451953125000000e+04
-6.058460546875000000e+04
-6.058448046875000000e+04
-6.058440625000000000e+04
-6.058358593750000000e+04
-6.058314843750000000e+04
-6.058287109375000000e+04
-6.058274218750000000e+04
-6.058225390625000000e+04
-6.058237109375000000e+04
-6.058273828125000000e+04
-6.058307031250000000e+04
-6.058339062500000000e+04
-6.058355468750000000e+04
-6.058373437500000000e+04
-6.058380468750000000e+04
-6.058379687500000000e+04
-6.058371484375000000e+04
-6.058361328125000000e+04
-6.058339453125000000e+04
-6.058318359375000000e+04
-6.058305078125000000e+04
-6.058257031250000000e+04
-6.058250781250000000e+04
-6.058284765625000000e+04
-6.058292578125000000e+04
-6.058309765625000000e+04
-6.058352734375000000e+04
-6.058378906250000000e+04
-6.058406640625000000e+04
-6.058412500000000000e+04
-6.058436718750000000e+04
-6.058544140625000000e+04
-6.058583593750000000e+04
-6.058671875000000000e+04
-6.058706640625000000e+04
-6.058686328125000000e+04
-6.058600000000000000e+04
-6.058419140625000000e+04
-6.058292968750000000e+04
-6.058139453125000000e+04
-6.058065625000000000e+04
-6.058051562500000000e+04
-6.057998437500000000e+04
-6.057875390625000000e+04
-6.057839453125000000e+04
-6.057611328125000000e+04
-6.057608593750000000e+04
-6.057607812500000000e+04
-6.057636328125000000e+04
-6.057647656250000000e+04
-6.057703515625000000e+04
-6.057753515625000000e+04
-6.057901953125000000e+04
-6.057916796875000000e+04
-6.057914843750000000e+04
-6.057874218750000000e+04
-6.057834765625000000e+04
-6.057819531250000000e+04
-6.057716406250000000e+04
-6.057745312500000000e+04
-6.057801171875000000e+04
-6.057813671875000000e+04
-6.057826171875000000e+04
-6.057946093750000000e+04
-6.057982421875000000e+04
-6.058146875000000000e+04
-6.058203906250000000e+04
-6.058227734375000000e+04
-6.058223828125000000e+04
-6.058218359375000000e+04
-6.058164453125000000e+04
-6.057779687500000000e+04
-6.057696875000000000e+04
-6.057651953125000000e+04
-6.057626953125000000e+04
-6.057615234375000000e+04
-6.057579687500000000e+04
-6.057576562500000000e+04
-6.057624218750000000e+04
-6.057669531250000000e+04
-6.057708593750000000e+04
-6.057828515625000000e+04
-6.057938671875000000e+04
-6.058005859375000000e+04
-6.058049218750000000e+04
-6.058214062500000000e+04
-6.058201171875000000e+04
-6.058196875000000000e+04
-6.058191796875000000e+04
-6.058008984375000000e+04
-6.057927343750000000e+04
-6.057898828125000000e+04
-6.057882421875000000e+04
-6.057890234375000000e+04
-6.057898437500000000e+04
-6.057952734375000000e+04
-6.057978515625000000e+04
-6.057987109375000000e+04
-6.058049609375000000e+04
-6.058060156250000000e+04
-6.058091015625000000e+04
-6.058138671875000000e+04
-6.058150390625000000e+04
-6.058170312500000000e+04
-6.058265625000000000e+04
-6.058310156250000000e+04
-6.058324609375000000e+04
-6.058361718750000000e+04
-6.058372265625000000e+04
-6.058419921875000000e+04
-6.058419140625000000e+04
-6.058417968750000000e+04
-6.058391406250000000e+04
-6.058337109375000000e+04
-6.058329687500000000e+04
-6.058348046875000000e+04
-6.058376562500000000e+04
-6.058380078125000000e+04
-6.058380859375000000e+04
-6.058322265625000000e+04
-6.058238671875000000e+04
-6.058207421875000000e+04
-6.058160937500000000e+04
-6.058110546875000000e+04
-6.058129296875000000e+04
-6.058164062500000000e+04
-6.058191406250000000e+04
-6.058205078125000000e+04
-6.058218750000000000e+04
-6.058246093750000000e+04
-6.058258984375000000e+04
-6.058271093750000000e+04
-6.058282421875000000e+04
-6.058292578125000000e+04
-6.058301171875000000e+04
-6.058172265625000000e+04
-6.057954687500000000e+04
-6.057920703125000000e+04
-6.057886718750000000e+04
-6.057791015625000000e+04
-6.057712890625000000e+04
-6.057638281250000000e+04
-6.057675781250000000e+04
-6.057753515625000000e+04
-6.057760937500000000e+04
-6.057712500000000000e+04
-6.057683203125000000e+04
-6.057517187500000000e+04
-6.057443359375000000e+04
-6.057367187500000000e+04
-6.057355468750000000e+04
-6.057334765625000000e+04
-6.057326171875000000e+04
-6.057311718750000000e+04
-6.057325781250000000e+04
-6.057392187500000000e+04
-6.057426562500000000e+04
-6.057512890625000000e+04
-6.057519531250000000e+04
-6.057500390625000000e+04
-6.057418359375000000e+04
-6.057384765625000000e+04
-6.057342187500000000e+04
-6.057338281250000000e+04
-6.057392968750000000e+04
-6.057447265625000000e+04
-6.057659375000000000e+04
-6.057678125000000000e+04
-6.057742578125000000e+04
-6.057785156250000000e+04
-6.057765234375000000e+04
-6.057710937500000000e+04
-6.057707421875000000e+04
-6.057708984375000000e+04
-6.057716015625000000e+04
-6.057779687500000000e+04
-6.057830468750000000e+04
-6.057838671875000000e+04
-6.057856640625000000e+04
-6.057857031250000000e+04
-6.057853515625000000e+04
-6.057848437500000000e+04
-6.057826562500000000e+04
-6.057787500000000000e+04
-6.057683984375000000e+04
-6.057710546875000000e+04
-6.057712109375000000e+04
-6.057703906250000000e+04
-6.057694531250000000e+04
-6.057594921875000000e+04
-6.057511718750000000e+04
-6.057492968750000000e+04
-6.057484375000000000e+04
-6.057367187500000000e+04
-6.057366015625000000e+04
-6.057371093750000000e+04
-6.057421875000000000e+04
-6.057457421875000000e+04
-6.057521093750000000e+04
-6.057631640625000000e+04
-6.057670703125000000e+04
-6.057702734375000000e+04
-6.057725781250000000e+04
-6.057747265625000000e+04
-6.057732812500000000e+04
-6.057689843750000000e+04
-6.057702734375000000e+04
-6.057712109375000000e+04
-6.057769531250000000e+04
-6.057875390625000000e+04
-6.057885546875000000e+04
-6.057903125000000000e+04
-6.057916406250000000e+04
-6.057903515625000000e+04
-6.057897265625000000e+04
-6.057807812500000000e+04
-6.057711328125000000e+04
-6.057629296875000000e+04
-6.057601562500000000e+04
-6.057583593750000000e+04
-6.057522265625000000e+04
-6.057514843750000000e+04
-6.057412109375000000e+04
-6.057375390625000000e+04
-6.057363671875000000e+04
-6.057353515625000000e+04
-6.057325000000000000e+04
-6.057315234375000000e+04
-6.057352343750000000e+04
-6.057429687500000000e+04
-6.057484765625000000e+04
-6.057543750000000000e+04
-6.057632421875000000e+04
-6.057685156250000000e+04
-6.057708593750000000e+04
-6.057730468750000000e+04
-6.057769531250000000e+04
-6.057797265625000000e+04
-6.057817578125000000e+04
-6.057811328125000000e+04
-6.057747656250000000e+04
-6.057679687500000000e+04
-6.057640234375000000e+04
-6.057619140625000000e+04
-6.057609375000000000e+04
-6.057600000000000000e+04
-6.057548437500000000e+04
-6.057537890625000000e+04
-6.057528515625000000e+04
-6.057492968750000000e+04
-6.057458593750000000e+04
-6.057430078125000000e+04
-6.057418359375000000e+04
-6.057414843750000000e+04
-6.057414062500000000e+04
-6.057418359375000000e+04
-6.057420703125000000e+04
-6.057458593750000000e+04
-6.057471875000000000e+04
-6.057494921875000000e+04
-6.057577734375000000e+04
-6.057637109375000000e+04
-6.057671484375000000e+04
-6.057673046875000000e+04
-6.057656640625000000e+04
-6.057633984375000000e+04
-6.057619140625000000e+04
-6.057616796875000000e+04
-6.057601562500000000e+04
-6.057599609375000000e+04
-6.057558203125000000e+04
-6.057530078125000000e+04
-6.057494921875000000e+04
-6.057476562500000000e+04
-6.057438671875000000e+04
-6.057415234375000000e+04
-6.057408203125000000e+04
-6.057410937500000000e+04
-6.057414843750000000e+04
-6.057438671875000000e+04
-6.057446484375000000e+04
-6.057486328125000000e+04
-6.057539062500000000e+04
-6.057549609375000000e+04
-6.057552734375000000e+04
-6.057481250000000000e+04
-6.057431640625000000e+04
-6.057327734375000000e+04
-6.057305468750000000e+04
-6.057214453125000000e+04
-6.057075000000000000e+04
-6.057059765625000000e+04
-6.057001953125000000e+04
-6.057001953125000000e+04
-6.057005859375000000e+04
-6.057006640625000000e+04
-6.057007812500000000e+04
-6.057006250000000000e+04
-6.057003906250000000e+04
