-2.733711051940917969e+01 1.476728677749633789e+00 -8.227804183959960938e+00 1.476728677749633789e+00 -7.340748786926269531e+00 -4.273704528808593750e+00 -8.227804183959960938e+00 -4.273704528808593750e+00 2.832184314727783203e+00
-9.517363548278808594e+00 -4.234300613403320312e+00 1.554305195808410645e+00 -4.234300613403320312e+00 -1.594882965087890625e+00 3.276482105255126953e+00 1.554305195808410645e+00 3.276482105255126953e+00 5.186639785766601562e+01
-3.500678539276123047e+00 -4.948486328125000000e+00 3.284703731536865234e+00 -4.948486328125000000e+00 2.330556631088256836e+00 5.342427730560302734e+00 3.284703731536865234e+00 5.342427730560302734e+00 6.191111373901367188e+01
1.208413505554199219e+01 -6.043114185333251953e+00 6.854065895080566406e+00 -6.043114185333251953e+00 1.299694538116455078e+01 1.059464263916015625e+01 6.854065895080566406e+00 1.059464263916015625e+01 8.513429260253906250e+01
2.636034011840820312e+01 -5.732149600982666016e+00 8.599256515502929688e+00 -5.732149600982666016e+00 2.315726280212402344e+01 1.524220371246337891e+01 8.599256515502929688e+00 1.524220371246337891e+01 1.034549102783203125e+02
7.585330486297607422e+00 4.300720214843750000e+00 -7.303984165191650391e+00 4.300720214843750000e+00 5.550337314605712891e+00 -3.179096460342407227e+00 -7.303984165191650391e+00 -3.179096460342407227e+00 6.588198089599609375e+01
-5.010407924652099609e+00 8.803293228149414062e+00 -1.386679935455322266e+01 8.803293228149414062e+00 -4.040009021759033203e+00 -1.231702041625976562e+01 -1.386679935455322266e+01 -1.231702041625976562e+01 4.525236511230468750e+01
-1.513273811340332031e+01 1.299438095092773438e+01 -1.875519180297851562e+01 1.299438095092773438e+01 -9.814112663269042969e+00 -1.855311965942382812e+01 -1.875519180297851562e+01 -1.855311965942382812e+01 2.894966888427734375e+01
-1.762417984008789062e+01 1.398092842102050781e+01 -1.978535461425781250e+01 1.398092842102050781e+01 -1.077653598785400391e+01 -1.972159004211425781e+01 -1.978535461425781250e+01 -1.972159004211425781e+01 2.504190063476562500e+01
-2.484981155395507812e+01 1.584009933471679688e+01 -2.208199119567871094e+01 1.584009933471679688e+01 -1.234962177276611328e+01 -2.182638359069824219e+01 -2.208199119567871094e+01 -2.182638359069824219e+01 1.472159671783447266e+01
-2.717148208618164062e+01 1.602407073974609375e+01 -2.260379981994628906e+01 1.602407073974609375e+01 -1.254565429687500000e+01 -2.213979148864746094e+01 -2.260379981994628906e+01 -2.213979148864746094e+01 1.177375698089599609e+01
-2.833459472656250000e+01 1.601680755615234375e+01 -2.285876274108886719e+01 1.601680755615234375e+01 -1.258886051177978516e+01 -2.224201393127441406e+01 -2.285876274108886719e+01 -2.224201393127441406e+01 1.037718296051025391e+01
-3.494658660888671875e+01 1.483577251434326172e+01 -2.388558387756347656e+01 1.483577251434326172e+01 -1.225093460083007812e+01 -2.234722328186035156e+01 -2.388558387756347656e+01 -2.234722328186035156e+01 3.376201152801513672e+00
-4.177728652954101562e+01 1.054918956756591797e+01 -2.469324874877929688e+01 1.054918956756591797e+01 -1.002244853973388672e+01 -2.179234695434570312e+01 -2.469324874877929688e+01 -2.179234695434570312e+01 -2.085171461105346680e+00
-4.370185852050781250e+01 7.853186607360839844e+00 -2.496215629577636719e+01 7.853186607360839844e+00 -8.017757415771484375e+00 -2.137078475952148438e+01 -2.496215629577636719e+01 -2.137078475952148438e+01 -2.996423244476318359e+00
-4.313984680175781250e+01 1.413253068923950195e+00 -2.498828315734863281e+01 1.413253068923950195e+00 -4.228264093399047852e-01 -2.031120872497558594e+01 -2.498828315734863281e+01 -2.031120872497558594e+01 4.878470897674560547e-01
-3.057827758789062500e+01 -5.439555168151855469e+00 -2.621668052673339844e+01 -5.439555168151855469e+00 1.202207374572753906e+01 -1.550616836547851562e+01 -2.621668052673339844e+01 -1.550616836547851562e+01 2.432123756408691406e+01
-2.903279685974121094e+01 -5.845972537994384766e+00 -2.664665412902832031e+01 -5.845972537994384766e+00 1.255580902099609375e+01 -1.458042716979980469e+01 -2.664665412902832031e+01 -1.458042716979980469e+01 2.709846878051757812e+01
-2.280501747131347656e+01 -6.175296783447265625e+00 -2.874164581298828125e+01 -6.175296783447265625e+00 1.441011142730712891e+01 -1.029864120483398438e+01 -2.874164581298828125e+01 -1.029864120483398438e+01 3.691958236694335938e+01
-1.797932243347167969e+01 -4.797067642211914062e+00 -2.992332649230957031e+01 -4.797067642211914062e+00 1.707447052001953125e+01 -6.764706134796142578e+00 -2.992332649230957031e+01 -6.764706134796142578e+00 4.341449356079101562e+01
-1.640366935729980469e+01 -4.015197277069091797e+00 -3.017186355590820312e+01 -4.015197277069091797e+00 1.836853408813476562e+01 -5.575942993164062500e+00 -3.017186355590820312e+01 -5.575942993164062500e+00 4.560543823242187500e+01
-1.473493766784667969e+01 -3.069622516632080078e+00 -3.030294418334960938e+01 -3.069622516632080078e+00 1.989367675781250000e+01 -4.338792324066162109e+00 -3.030294418334960938e+01 -4.338792324066162109e+00 4.788714981079101562e+01
-1.205177211761474609e+01 -1.451230883598327637e+00 -3.028153038024902344e+01 -1.451230883598327637e+00 2.253349685668945312e+01 -2.470513820648193359e+00 -3.028153038024902344e+01 -2.470513820648193359e+00 5.155516815185546875e+01
-1.016003131866455078e+01 -2.270102649927139282e-01 -3.011932754516601562e+01 -2.270102649927139282e-01 2.449168777465820312e+01 -1.190913677215576172e+00 -3.011932754516601562e+01 -1.190913677215576172e+00 5.414351654052734375e+01
-9.147775650024414062e+00 3.862009048461914062e-01 -2.998656463623046875e+01 3.862009048461914062e-01 2.554980278015136719e+01 -5.389181971549987793e-01 -2.998656463623046875e+01 -5.389181971549987793e-01 5.546786499023437500e+01
-8.132057189941406250e+00 1.014827251434326172e+00 -2.982001304626464844e+01 1.014827251434326172e+00 2.659627342224121094e+01 1.104153916239738464e-01 -2.982001304626464844e+01 1.104153916239738464e-01 5.678449249267578125e+01
-7.104542255401611328e+00 1.636467576026916504e+00 -2.962705612182617188e+01 1.636467576026916504e+00 2.765479660034179688e+01 7.668839693069458008e-01 -2.962705612182617188e+01 7.668839693069458008e-01 5.810254669189453125e+01
-6.075423240661621094e+00 2.249498844146728516e+00 -2.942339897155761719e+01 2.249498844146728516e+00 2.870038414001464844e+01 1.438569664955139160e+00 -2.942339897155761719e+01 1.438569664955139160e+00 5.938702392578125000e+01
4.342571735382080078e+00 7.048988819122314453e+00 -2.565088844299316406e+01 7.048988819122314453e+00 3.632669448852539062e+01 6.829605102539062500e+00 -2.565088844299316406e+01 6.829605102539062500e+00 6.904103851318359375e+01
1.049950408935546875e+01 9.460111618041992188e+00 -2.106399345397949219e+01 9.460111618041992188e+00 3.661247253417968750e+01 8.723591804504394531e+00 -2.106399345397949219e+01 8.723591804504394531e+00 6.889786529541015625e+01
1.413338184356689453e+01 1.101796913146972656e+01 -1.730990409851074219e+01 1.101796913146972656e+01 3.437318420410156250e+01 9.409692764282226562e+00 -1.730990409851074219e+01 9.409692764282226562e+00 6.669191741943359375e+01
1.564375686645507812e+01 1.156772804260253906e+01 -1.578614139556884766e+01 1.156772804260253906e+01 3.336629867553710938e+01 9.569121360778808594e+00 -1.578614139556884766e+01 9.569121360778808594e+00 6.565128326416015625e+01
4.673992538452148438e+01 8.572251319885253906e+00 -6.295285820960998535e-01 8.572251319885253906e+00 2.776844215393066406e+01 2.324118614196777344e+00 -6.295285820960998535e-01 2.324118614196777344e+00 5.354974365234375000e+01
4.598665237426757812e+01 5.249651432037353516e+00 8.813821077346801758e-01 5.249651432037353516e+00 2.441839599609375000e+01 -1.009850215911865234e+01 8.813821077346801758e-01 -1.009850215911865234e+01 5.410530090332031250e+01
4.516949844360351562e+01 5.262261390686035156e+00 8.538864254951477051e-01 5.262261390686035156e+00 2.395126152038574219e+01 -1.096426391601562500e+01 8.538864254951477051e-01 -1.096426391601562500e+01 5.447122573852539062e+01
3.797971343994140625e+01 5.558141708374023438e+00 4.409184306859970093e-02 5.558141708374023438e+00 2.058063888549804688e+01 -1.611079978942871094e+01 4.409184306859970093e-02 -1.611079978942871094e+01 5.645744705200195312e+01
3.575904846191406250e+01 5.715324878692626953e+00 -3.056074082851409912e-01 5.715324878692626953e+00 1.959313964843750000e+01 -1.711991882324218750e+01 -3.056074082851409912e-01 -1.711991882324218750e+01 5.650397872924804688e+01
3.356062316894531250e+01 5.875057220458984375e+00 -7.222270965576171875e-01 5.875057220458984375e+00 1.848764228820800781e+01 -1.794261932373046875e+01 -7.222270965576171875e-01 -1.794261932373046875e+01 5.619347000122070312e+01
2.934671592712402344e+01 6.145911216735839844e+00 -1.494761228561401367e+00 6.145911216735839844e+00 1.608426284790039062e+01 -1.885079765319824219e+01 -1.494761228561401367e+00 -1.885079765319824219e+01 5.469519042968750000e+01
2.650577735900878906e+01 6.380573272705078125e+00 -2.048998594284057617e+00 6.380573272705078125e+00 1.415115070343017578e+01 -1.884850311279296875e+01 -2.048998594284057617e+00 -1.884850311279296875e+01 5.244056701660156250e+01
2.567938041687011719e+01 6.418614864349365234e+00 -2.238986730575561523e+00 6.418614864349365234e+00 1.346352100372314453e+01 -1.875061607360839844e+01 -2.238986730575561523e+00 -1.875061607360839844e+01 5.136788558959960938e+01
2.320806503295898438e+01 6.460800647735595703e+00 -2.744656801223754883e+00 6.460800647735595703e+00 1.123505115509033203e+01 -1.800932312011718750e+01 -2.744656801223754883e+00 -1.800932312011718750e+01 4.778125762939453125e+01
1.944096565246582031e+01 6.478647232055664062e+00 -3.152642965316772461e+00 6.478647232055664062e+00 6.826476097106933594e+00 -1.589752674102783203e+01 -3.152642965316772461e+00 -1.589752674102783203e+01 4.060975646972656250e+01
1.641711425781250000e+01 6.270235538482666016e+00 -3.288891315460205078e+00 6.270235538482666016e+00 2.799015760421752930e+00 -1.363802433013916016e+01 -3.288891315460205078e+00 -1.363802433013916016e+01 3.366348648071289062e+01
1.185100460052490234e+01 6.076208591461181641e+00 -2.968589782714843750e+00 6.076208591461181641e+00 -3.466760396957397461e+00 -1.069598102569580078e+01 -2.968589782714843750e+00 -1.069598102569580078e+01 2.491644287109375000e+01
1.084967994689941406e+01 6.001809597015380859e+00 -2.885946989059448242e+00 6.001809597015380859e+00 -4.720002174377441406e+00 -1.008450126647949219e+01 -2.885946989059448242e+00 -1.008450126647949219e+01 2.310600662231445312e+01
8.712948799133300781e+00 5.873135089874267578e+00 -2.614377737045288086e+00 5.873135089874267578e+00 -7.339857578277587891e+00 -8.951610565185546875e+00 -2.614377737045288086e+00 -8.951610565185546875e+00 1.952989768981933594e+01
5.361419200897216797e+00 5.649429321289062500e+00 -2.036255598068237305e+00 5.649429321289062500e+00 -1.149584007263183594e+01 -7.296993732452392578e+00 -2.036255598068237305e+00 -7.296993732452392578e+00 1.490414142608642578e+01
2.167961120605468750e+00 5.465186595916748047e+00 -1.475695848464965820e+00 5.465186595916748047e+00 -1.501471805572509766e+01 -5.629770755767822266e+00 -1.475695848464965820e+00 -5.629770755767822266e+00 1.022235774993896484e+01
1.168600797653198242e+00 5.327009677886962891e+00 -1.280882120132446289e+00 5.327009677886962891e+00 -1.607578659057617188e+01 -5.140057563781738281e+00 -1.280882120132446289e+00 -5.140057563781738281e+00 8.805212974548339844e+00
-3.459177732467651367e+00 5.017107963562011719e+00 2.668343484401702881e-01 5.017107963562011719e+00 -2.137393569946289062e+01 -3.000880718231201172e+00 2.668343484401702881e-01 -3.000880718231201172e+00 2.667802333831787109e+00
-4.819371223449707031e+00 4.869803428649902344e+00 9.593091607093811035e-01 4.869803428649902344e+00 -2.292757415771484375e+01 -2.345160245895385742e+00 9.593091607093811035e-01 -2.345160245895385742e+00 4.521794915199279785e-01
-7.025876522064208984e+00 4.461595535278320312e+00 2.435771226882934570e+00 4.461595535278320312e+00 -2.548524665832519531e+01 -1.221823930740356445e+00 2.435771226882934570e+00 -1.221823930740356445e+00 -3.058097362518310547e+00
-8.663735389709472656e+00 2.483815670013427734e+00 6.277073383331298828e+00 2.483815670013427734e+00 -2.559424972534179688e+01 1.972365021705627441e+00 6.277073383331298828e+00 1.972365021705627441e+00 -8.135171890258789062e+00
-8.769707679748535156e+00 1.808636069297790527e+00 7.139905452728271484e+00 1.808636069297790527e+00 -2.416346931457519531e+01 2.679534912109375000e+00 7.139905452728271484e+00 2.679534912109375000e+00 -7.958010673522949219e+00
-9.000864028930664062e+00 1.543485283851623535e+00 7.828682422637939453e+00 1.543485283851623535e+00 -2.224720954895019531e+01 3.257097721099853516e+00 7.828682422637939453e+00 3.257097721099853516e+00 -6.979519367218017578e+00
-9.657851219177246094e+00 1.618043541908264160e+00 8.443680763244628906e+00 1.618043541908264160e+00 -1.750043487548828125e+01 3.829771041870117188e+00 8.443680763244628906e+00 3.829771041870117188e+00 -4.397531986236572266e+00
-9.450112342834472656e+00 3.655701875686645508e+00 8.994958877563476562e+00 3.655701875686645508e+00 -7.712716102600097656e+00 3.041652679443359375e+00 8.994958877563476562e+00 3.041652679443359375e+00 1.493209600448608398e+00
-8.654703140258789062e+00 5.575293540954589844e+00 9.558490753173828125e+00 5.575293540954589844e+00 -4.801011979579925537e-01 1.824877142906188965e+00 9.558490753173828125e+00 1.824877142906188965e+00 5.774915218353271484e+00
-6.159844398498535156e+00 7.705649375915527344e+00 1.060968971252441406e+01 7.705649375915527344e+00 9.478098869323730469e+00 -1.342227697372436523e+00 1.060968971252441406e+01 -1.342227697372436523e+00 1.213454246520996094e+01
-2.617836952209472656e+00 8.926477432250976562e+00 1.152104187011718750e+01 8.926477432250976562e+00 1.926404953002929688e+01 -6.590238571166992188e+00 1.152104187011718750e+01 -6.590238571166992188e+00 1.989923667907714844e+01
-1.931921482086181641e+00 8.994709014892578125e+00 1.163647174835205078e+01 8.994709014892578125e+00 2.072676849365234375e+01 -7.658390998840332031e+00 1.163647174835205078e+01 -7.658390998840332031e+00 2.133455276489257812e+01
-4.459317922592163086e-01 8.941796302795410156e+00 1.175617313385009766e+01 8.941796302795410156e+00 2.372343826293945312e+01 -1.001058387756347656e+01 1.175617313385009766e+01 -1.001058387756347656e+01 2.425833511352539062e+01
1.985415697097778320e+00 8.532714843750000000e+00 1.178365993499755859e+01 8.532714843750000000e+00 2.772660827636718750e+01 -1.375774383544921875e+01 1.178365993499755859e+01 -1.375774383544921875e+01 2.870952415466308594e+01
6.202253818511962891e+00 7.046648979187011719e+00 1.146486854553222656e+01 7.046648979187011719e+00 3.289423370361328125e+01 -2.023529624938964844e+01 1.146486854553222656e+01 -2.023529624938964844e+01 3.599244308471679688e+01
7.991075992584228516e+00 6.281493186950683594e+00 1.132642364501953125e+01 6.281493186950683594e+00 3.453531265258789062e+01 -2.272921562194824219e+01 1.132642364501953125e+01 -2.272921562194824219e+01 3.863366317749023438e+01
1.054160881042480469e+01 5.092173576354980469e+00 1.123949813842773438e+01 5.092173576354980469e+00 3.649364852905273438e+01 -2.610354423522949219e+01 1.123949813842773438e+01 -2.610354423522949219e+01 4.218574905395507812e+01
1.449788379669189453e+01 2.919439315795898438e+00 1.141397476196289062e+01 2.919439315795898438e+00 3.836214447021484375e+01 -3.038643836975097656e+01 1.141397476196289062e+01 -3.038643836975097656e+01 4.666854095458984375e+01
1.918775558471679688e+01 1.906404793262481689e-01 1.224721622467041016e+01 1.906404793262481689e-01 3.851366043090820312e+01 -3.323869705200195312e+01 1.224721622467041016e+01 -3.323869705200195312e+01 4.949021530151367188e+01
2.528671646118164062e+01 -2.795859098434448242e+00 1.261745071411132812e+01 -2.795859098434448242e+00 3.584405517578125000e+01 -3.243021392822265625e+01 1.261745071411132812e+01 -3.243021392822265625e+01 4.571467590332031250e+01
2.772857475280761719e+01 -4.071617126464843750e+00 1.162856483459472656e+01 -4.071617126464843750e+00 3.425690078735351562e+01 -3.141958618164062500e+01 1.162856483459472656e+01 -3.141958618164062500e+01 4.230576324462890625e+01
3.073533630371093750e+01 -6.084674835205078125e+00 9.203889846801757812e+00 -6.084674835205078125e+00 3.181059455871582031e+01 -2.996447563171386719e+01 9.203889846801757812e+00 -2.996447563171386719e+01 3.730969238281250000e+01
3.134652137756347656e+01 -6.560409545898437500e+00 8.548740386962890625e+00 -6.560409545898437500e+00 3.123726844787597656e+01 -2.970072555541992188e+01 8.548740386962890625e+00 -2.970072555541992188e+01 3.629996109008789062e+01
3.398905944824218750e+01 -9.382046699523925781e+00 4.696831703186035156e+00 -9.382046699523925781e+00 2.830712890625000000e+01 -2.833915710449218750e+01 4.696831703186035156e+00 -2.833915710449218750e+01 3.129128074645996094e+01
3.756819915771484375e+01 -1.740809059143066406e+01 -7.751346111297607422e+00 -1.740809059143066406e+01 2.065571784973144531e+01 -2.511475563049316406e+01 -7.751346111297607422e+00 -2.511475563049316406e+01 2.163843917846679688e+01
3.722813415527343750e+01 -1.804456138610839844e+01 -8.890172004699707031e+00 -1.804456138610839844e+01 2.024337005615234375e+01 -2.473705673217773438e+01 -8.890172004699707031e+00 -2.473705673217773438e+01 2.116531562805175781e+01
3.132026100158691406e+01 -1.914197540283203125e+01 -1.192266464233398438e+01 -1.914197540283203125e+01 2.286975479125976562e+01 -2.192009544372558594e+01 -1.192266464233398438e+01 -2.192009544372558594e+01 2.192904281616210938e+01
2.977451896667480469e+01 -1.899486732482910156e+01 -1.176921463012695312e+01 -1.899486732482910156e+01 2.409406471252441406e+01 -2.128462982177734375e+01 -1.176921463012695312e+01 -2.128462982177734375e+01 2.236496162414550781e+01
9.156170845031738281e+00 -1.497561550140380859e+01 -6.371489048004150391e+00 -1.497561550140380859e+01 3.957473373413085938e+01 -1.923476600646972656e+01 -6.371489048004150391e+00 -1.923476600646972656e+01 2.701151084899902344e+01
8.548850059509277344e+00 -1.477553081512451172e+01 -6.133846759796142578e+00 -1.477553081512451172e+01 4.007736968994140625e+01 -1.952126312255859375e+01 -6.133846759796142578e+00 -1.952126312255859375e+01 2.723406791687011719e+01
7.977522373199462891e+00 -1.454535007476806641e+01 -5.888000488281250000e+00 -1.454535007476806641e+01 4.048738098144531250e+01 -1.980062294006347656e+01 -5.888000488281250000e+00 -1.980062294006347656e+01 2.744349670410156250e+01
7.674999713897705078e+00 -1.226554298400878906e+01 -4.482424259185791016e+00 -1.226554298400878906e+01 4.350042343139648438e+01 -2.404087829589843750e+01 -4.482424259185791016e+00 -2.404087829589843750e+01 3.107979583740234375e+01
8.132472038269042969e+00 -1.226942443847656250e+01 -4.450728893280029297e+00 -1.226942443847656250e+01 4.368230819702148438e+01 -2.427396202087402344e+01 -4.450728893280029297e+00 -2.427396202087402344e+01 3.148568725585937500e+01
1.635758590698242188e+01 -1.432791519165039062e+01 -4.899892330169677734e+00 -1.432791519165039062e+01 4.607508850097656250e+01 -2.550375747680664062e+01 -4.899892330169677734e+00 -2.550375747680664062e+01 3.787583541870117188e+01
1.953227615356445312e+01 -1.559948635101318359e+01 -5.104209899902343750e+00 -1.559948635101318359e+01 4.635263824462890625e+01 -2.556157875061035156e+01 -5.104209899902343750e+00 -2.556157875061035156e+01 4.031327056884765625e+01
2.696355628967285156e+01 -1.875532150268554688e+01 -4.929187297821044922e+00 -1.875532150268554688e+01 4.265645599365234375e+01 -2.464474678039550781e+01 -4.929187297821044922e+00 -2.464474678039550781e+01 4.796570205688476562e+01
2.721432876586914062e+01 -1.886103630065917969e+01 -4.758759498596191406e+00 -1.886103630065917969e+01 4.152265548706054688e+01 -2.436841583251953125e+01 -4.758759498596191406e+00 -2.436841583251953125e+01 4.899642562866210938e+01
2.686215972900390625e+01 -1.856338500976562500e+01 -4.489647388458251953e+00 -1.856338500976562500e+01 3.881039810180664062e+01 -2.373253250122070312e+01 -4.489647388458251953e+00 -2.373253250122070312e+01 5.082516479492187500e+01
2.216489219665527344e+01 -1.471528530120849609e+01 -3.129985809326171875e+00 -1.471528530120849609e+01 2.932043266296386719e+01 -1.881918907165527344e+01 -3.129985809326171875e+00 -1.881918907165527344e+01 5.273866653442382812e+01
2.165856361389160156e+01 -1.424889850616455078e+01 -3.015874624252319336e+00 -1.424889850616455078e+01 2.835282516479492188e+01 -1.812166786193847656e+01 -3.015874624252319336e+00 -1.812166786193847656e+01 5.267597198486328125e+01
2.041757774353027344e+01 -1.272492599487304688e+01 -2.770547628402709961e+00 -1.272492599487304688e+01 2.548639106750488281e+01 -1.581669521331787109e+01 -2.770547628402709961e+00 -1.581669521331787109e+01 5.241768646240234375e+01
1.976934814453125000e+01 -1.065643978118896484e+01 -2.512978076934814453e+00 -1.065643978118896484e+01 2.183120346069335938e+01 -1.220931053161621094e+01 -2.512978076934814453e+00 -1.220931053161621094e+01 5.207252502441406250e+01
2.147595405578613281e+01 -7.788944721221923828e+00 -2.263037681579589844e+00 -7.788944721221923828e+00 1.725834274291992188e+01 -6.202361106872558594e+00 -2.263037681579589844e+00 -6.202361106872558594e+00 5.163284683227539062e+01
2.218735694885253906e+01 -7.369241714477539062e+00 -2.218472003936767578e+00 -7.369241714477539062e+00 1.664227867126464844e+01 -5.169171810150146484e+00 -2.218472003936767578e+00 -5.169171810150146484e+00 5.168318176269531250e+01
2.298661422729492188e+01 -6.945153713226318359e+00 -2.189048767089843750e+00 -6.945153713226318359e+00 1.605341911315917969e+01 -4.139435291290283203e+00 -2.189048767089843750e+00 -4.139435291290283203e+00 5.175819396972656250e+01
2.608186721801757812e+01 -5.764930248260498047e+00 -2.085456848144531250e+00 -5.764930248260498047e+00 1.471799945831298828e+01 -1.242822408676147461e+00 -2.085456848144531250e+00 -1.242822408676147461e+00 5.216852951049804688e+01
3.688806533813476562e+01 -2.718289613723754883e+00 -1.146725296974182129e+00 -2.718289613723754883e+00 1.354335784912109375e+01 4.015959262847900391e+00 -1.146725296974182129e+00 4.015959262847900391e+00 5.425835037231445312e+01
3.865343475341796875e+01 -2.195378541946411133e+00 -9.220060110092163086e-01 -2.195378541946411133e+00 1.352268314361572266e+01 4.525924682617187500e+00 -9.220060110092163086e-01 4.525924682617187500e+00 5.465762710571289062e+01
4.046074676513671875e+01 -1.653842329978942871e+00 -6.609378457069396973e-01 -1.653842329978942871e+00 1.355606174468994141e+01 4.955261707305908203e+00 -6.609378457069396973e-01 4.955261707305908203e+00 5.505644607543945312e+01
4.410116577148437500e+01 -5.140781998634338379e-01 -3.655240312218666077e-02 -5.140781998634338379e-01 1.370266628265380859e+01 5.619300842285156250e+00 -3.655240312218666077e-02 5.619300842285156250e+00 5.589376831054687500e+01
4.758928298950195312e+01 7.457855343818664551e-01 7.199431061744689941e-01 7.457855343818664551e-01 1.396925735473632812e+01 6.010753154754638672e+00 7.199431061744689941e-01 6.010753154754638672e+00 5.680838775634765625e+01
5.396278381347656250e+01 3.516963720321655273e+00 2.599237918853759766e+00 3.516963720321655273e+00 1.467311668395996094e+01 6.022360801696777344e+00 2.599237918853759766e+00 6.022360801696777344e+00 5.872917938232421875e+01
5.675261306762695312e+01 4.955089569091796875e+00 3.731725692749023438e+00 4.955089569091796875e+00 1.516137027740478516e+01 5.704548835754394531e+00 3.731725692749023438e+00 5.704548835754394531e+00 5.961085510253906250e+01
6.279661941528320312e+01 8.582272529602050781e+00 7.285369873046875000e+00 8.582272529602050781e+00 1.668107032775878906e+01 4.009851455688476562e+00 7.285369873046875000e+00 4.009851455688476562e+00 6.251015090942382812e+01
6.504891204833984375e+01 1.004578018188476562e+01 1.019912815093994141e+01 1.004578018188476562e+01 1.825686264038085938e+01 1.860444664955139160e+00 1.019912815093994141e+01 1.860444664955139160e+00 6.469418334960937500e+01
6.495198822021484375e+01 9.963115692138671875e+00 1.084670543670654297e+01 9.963115692138671875e+00 1.874254798889160156e+01 1.102615952491760254e+00 1.084670543670654297e+01 1.102615952491760254e+00 6.513172149658203125e+01
6.273647689819335938e+01 8.650867462158203125e+00 1.129734420776367188e+01 8.650867462158203125e+00 2.024435615539550781e+01 -7.583124041557312012e-01 1.129734420776367188e+01 -7.583124041557312012e-01 6.559746551513671875e+01
5.255967330932617188e+01 4.550042629241943359e+00 6.978744506835937500e+00 4.550042629241943359e+00 2.548031425476074219e+01 -5.033426761627197266e+00 6.978744506835937500e+00 -5.033426761627197266e+00 6.195322418212890625e+01
5.164664459228515625e+01 4.287717819213867188e+00 6.353666305541992188e+00 4.287717819213867188e+00 2.601542091369628906e+01 -5.453487396240234375e+00 6.353666305541992188e+00 -5.453487396240234375e+00 6.140383148193359375e+01
5.005316543579101562e+01 3.850858926773071289e+00 5.085505485534667969e+00 3.850858926773071289e+00 2.718103981018066406e+01 -6.377437114715576172e+00 5.085505485534667969e+00 -6.377437114715576172e+00 6.029264068603515625e+01
4.932810211181640625e+01 3.678216457366943359e+00 4.434810161590576172e+00 3.678216457366943359e+00 2.778265762329101562e+01 -6.870191574096679688e+00 4.434810161590576172e+00 -6.870191574096679688e+00 5.969626617431640625e+01
4.762771606445312500e+01 3.387889385223388672e+00 2.538816690444946289e+00 3.387889385223388672e+00 2.943439483642578125e+01 -8.361196517944335938e+00 2.538816690444946289e+00 -8.361196517944335938e+00 5.789083099365234375e+01
4.727237319946289062e+01 3.362740993499755859e+00 1.917125105857849121e+00 3.362740993499755859e+00 2.992417144775390625e+01 -8.871907234191894531e+00 1.917125105857849121e+00 -8.871907234191894531e+00 5.731837463378906250e+01
4.702950286865234375e+01 3.663857460021972656e+00 -9.302583336830139160e-01 3.663857460021972656e+00 3.212113189697265625e+01 -1.175517845153808594e+01 -9.302583336830139160e-01 -1.175517845153808594e+01 5.509098815917968750e+01
4.997663879394531250e+01 5.336790561676025391e+00 -4.203516483306884766e+00 5.336790561676025391e+00 3.441935348510742188e+01 -1.573073482513427734e+01 -4.203516483306884766e+00 -1.573073482513427734e+01 5.353666305541992188e+01
5.059392929077148438e+01 5.610208034515380859e+00 -4.602113723754882812e+00 5.610208034515380859e+00 3.468270111083984375e+01 -1.627681159973144531e+01 -4.602113723754882812e+00 -1.627681159973144531e+01 5.346375274658203125e+01
5.119572067260742188e+01 5.907131195068359375e+00 -4.994226932525634766e+00 5.907131195068359375e+00 3.493407440185546875e+01 -1.678908920288085938e+01 -4.994226932525634766e+00 -1.678908920288085938e+01 5.341627120971679688e+01
5.292652130126953125e+01 6.817962646484375000e+00 -6.046974182128906250e+00 6.817962646484375000e+00 3.564268493652343750e+01 -1.815549659729003906e+01 -6.046974182128906250e+00 -1.815549659729003906e+01 5.346361541748046875e+01
5.610667419433593750e+01 9.089412689208984375e+00 -8.453501701354980469e+00 9.089412689208984375e+00 3.756787109375000000e+01 -2.047837257385253906e+01 -8.453501701354980469e+00 -2.047837257385253906e+01 5.449460220336914062e+01
5.614467239379882812e+01 9.284159660339355469e+00 -8.645534515380859375e+00 9.284159660339355469e+00 3.773969650268554688e+01 -2.053256416320800781e+01 -8.645534515380859375e+00 -2.053256416320800781e+01 5.466827392578125000e+01
5.494865417480468750e+01 1.003234481811523438e+01 -9.430973052978515625e+00 1.003234481811523438e+01 3.838013839721679688e+01 -2.020488166809082031e+01 -9.430973052978515625e+00 -2.020488166809082031e+01 5.567456436157226562e+01
5.383544158935546875e+01 1.023850727081298828e+01 -9.631910324096679688e+00 1.023850727081298828e+01 3.843540954589843750e+01 -1.973538208007812500e+01 -9.631910324096679688e+00 -1.973538208007812500e+01 5.607375717163085938e+01
4.226753234863281250e+01 1.040200233459472656e+01 -1.037180709838867188e+01 1.040200233459472656e+01 3.654762649536132812e+01 -1.497399711608886719e+01 -1.037180709838867188e+01 -1.497399711608886719e+01 5.630806732177734375e+01
3.523826599121093750e+01 1.011645412445068359e+01 -1.073269367218017578e+01 1.011645412445068359e+01 3.458394241333007812e+01 -1.186961841583251953e+01 -1.073269367218017578e+01 -1.186961841583251953e+01 5.389026260375976562e+01
3.328047943115234375e+01 9.949570655822753906e+00 -1.083150672912597656e+01 9.949570655822753906e+00 3.402734375000000000e+01 -1.089500331878662109e+01 -1.083150672912597656e+01 -1.089500331878662109e+01 5.257117080688476562e+01
3.036441612243652344e+01 9.526240348815917969e+00 -1.108034420013427734e+01 9.526240348815917969e+00 3.305069732666015625e+01 -9.041753768920898438e+00 -1.108034420013427734e+01 -9.041753768920898438e+00 4.919705200195312500e+01
2.982499313354492188e+01 9.343675613403320312e+00 -1.114416885375976562e+01 9.343675613403320312e+00 3.283598709106445312e+01 -8.591489791870117188e+00 -1.114416885375976562e+01 -8.591489791870117188e+00 4.825649642944335938e+01
2.941007804870605469e+01 9.155893325805664062e+00 -1.123008918762207031e+01 9.155893325805664062e+00 3.264932250976562500e+01 -8.127390861511230469e+00 -1.123008918762207031e+01 -8.127390861511230469e+00 4.724361038208007812e+01
3.195002555847167969e+01 2.731282472610473633e+00 -1.310013294219970703e+01 2.731282472610473633e+00 3.333443832397460938e+01 5.438815355300903320e-01 -1.310013294219970703e+01 5.438815355300903320e-01 2.874121665954589844e+01
3.232120132446289062e+01 2.285294532775878906e+00 -1.326947116851806641e+01 2.285294532775878906e+00 3.351579284667968750e+01 1.000315189361572266e+00 -1.326947116851806641e+01 1.000315189361572266e+00 2.786415672302246094e+01