-2.203662695312500000e+04
-2.203086718750000000e+04
-2.202921875000000000e+04
-2.202458398437500000e+04
-2.201898632812500000e+04
-2.201282226562500000e+04
-2.201368359375000000e+04
-2.201407226562500000e+04
-2.201404296875000000e+04
-2.201365234375000000e+04
-2.201343554687500000e+04
-2.201331250000000000e+04
-2.201244140625000000e+04
-2.201123828125000000e+04
-2.201082812500000000e+04
-2.201105078125000000e+04
-2.201473632812500000e+04
-2.201504296875000000e+04
-2.201583398437500000e+04
-2.201611328125000000e+04
-2.201618554687500000e+04
-2.201625195312500000e+04
-2.201638085937500000e+04
-2.201646289062500000e+04
-2.201651562500000000e+04
-2.201655664062500000e+04
-2.201659960937500000e+04
-2.201665039062500000e+04
-2.201711328125000000e+04
-2.201745703125000000e+04
-2.201765625000000000e+04
-2.201770507812500000e+04
-2.201753515625000000e+04
-2.201854101562500000e+04
-2.201862695312500000e+04
-2.201905859375000000e+04
-2.201910742187500000e+04
-2.201911132812500000e+04
-2.201900976562500000e+04
-2.201880273437500000e+04
-2.201872460937500000e+04
-2.201841601562500000e+04
-2.201780078125000000e+04
-2.201730273437500000e+04
-2.201677929687500000e+04
-2.201670312500000000e+04
-2.201655078125000000e+04
-2.201638476562500000e+04
-2.201627734375000000e+04
-2.201625390625000000e+04
-2.201619921875000000e+04
-2.201619921875000000e+04
-2.201618945312500000e+04
-2.201601953125000000e+04
-2.201580859375000000e+04
-2.201560546875000000e+04
-2.201582226562500000e+04
-2.201762695312500000e+04
-2.201898437500000000e+04
-2.202039648437500000e+04
-2.202119335937500000e+04
-2.202127343750000000e+04
-2.202136914062500000e+04
-2.202135742187500000e+04
-2.202096093750000000e+04
-2.202070507812500000e+04
-2.202023632812500000e+04
-2.201928710937500000e+04
-2.201795117187500000e+04
-2.201646875000000000e+04
-2.201607812500000000e+04
-2.201570312500000000e+04
-2.201563867187500000e+04
-2.201540234375000000e+04
-2.201598632812500000e+04
-2.201621875000000000e+04
-2.201775976562500000e+04
-2.201793554687500000e+04
-2.201612500000000000e+04
-2.201594921875000000e+04
-2.201577343750000000e+04
-2.201437304687500000e+04
-2.201437500000000000e+04
-2.201589843750000000e+04
-2.201675976562500000e+04
-2.201862695312500000e+04
-2.201863281250000000e+04
-2.201841406250000000e+04
-2.201694726562500000e+04
-2.201682812500000000e+04
-2.201650781250000000e+04
-2.201627148437500000e+04
-2.201639453125000000e+04
-2.201645898437500000e+04
-2.201651757812500000e+04
-2.201671875000000000e+04
-2.201708398437500000e+04
-2.201711132812500000e+04
-2.201714843750000000e+04
-2.201718554687500000e+04
-2.201719921875000000e+04
-2.201719140625000000e+04
-2.201716601562500000e+04
-2.201717578125000000e+04
-2.201730273437500000e+04
-2.201738671875000000e+04
-2.201761718750000000e+04
-2.201795703125000000e+04
-2.201796093750000000e+04
-2.201796484375000000e+04
-2.201795703125000000e+04
-2.201790429687500000e+04
-2.201787695312500000e+04
-2.201767578125000000e+04
-2.201724609375000000e+04
-2.201717773437500000e+04
-2.201710937500000000e+04
-2.201691601562500000e+04
-2.201666992187500000e+04
-2.201667382812500000e+04
-2.201677343750000000e+04
-2.201682617187500000e+04
-2.201663085937500000e+04
-2.201602929687500000e+04
-2.201578125000000000e+04
-2.201527539062500000e+04
-2.201515429687500000e+04
-2.201504492187500000e+04
-2.201509375000000000e+04
-2.201519531250000000e+04
-2.201649218750000000e+04
-2.201660156250000000e+04
-2.201691406250000000e+04
-2.201730859375000000e+04
-2.201747460937500000e+04
-2.201798437500000000e+04
-2.201811523437500000e+04
-2.201787109375000000e+04
-2.201771875000000000e+04
-2.201710742187500000e+04
-2.201620703125000000e+04
-2.201647851562500000e+04
-2.201661914062500000e+04
-2.201676171875000000e+04
-2.201735742187500000e+04
-2.201799609375000000e+04
-2.201836914062500000e+04
-2.201790429687500000e+04
-2.201764257812500000e+04
-2.201716406250000000e+04
-2.201558398437500000e+04
-2.201466992187500000e+04
-2.201367187500000000e+04
-2.201354492187500000e+04
-2.201348828125000000e+04
-2.201358789062500000e+04
-2.201371679687500000e+04
-2.201428320312500000e+04
-2.201457421875000000e+04
-2.201483789062500000e+04
-2.201504882812500000e+04
-2.201524023437500000e+04
-2.201568554687500000e+04
-2.201623242187500000e+04
-2.201638085937500000e+04
-2.201660937500000000e+04
-2.201665820312500000e+04
-2.201660546875000000e+04
-2.201646289062500000e+04
-2.201617382812500000e+04
-2.201519921875000000e+04
-2.201513476562500000e+04
-2.201498828125000000e+04
-2.201488671875000000e+04
-2.201485156250000000e+04
-2.201484765625000000e+04
-2.201516210937500000e+04
-2.201521679687500000e+04
-2.201533007812500000e+04
-2.201619335937500000e+04
-2.201614648437500000e+04
-2.201604101562500000e+04
-2.201522070312500000e+04
-2.201508789062500000e+04
-2.201508789062500000e+04
-2.201540039062500000e+04
-2.201553906250000000e+04
-2.201675390625000000e+04
-2.201678515625000000e+04
-2.201688671875000000e+04
-2.201548828125000000e+04
-2.201517187500000000e+04
-2.201504296875000000e+04
-2.201502734375000000e+04
-2.201581445312500000e+04
-2.201619335937500000e+04
-2.201653320312500000e+04
-2.201487109375000000e+04
-2.201456445312500000e+04
-2.201403320312500000e+04
-2.201362304687500000e+04
-2.201383593750000000e+04
-2.201418359375000000e+04
-2.201470507812500000e+04
-2.201481640625000000e+04
-2.201570703125000000e+04
-2.201661328125000000e+04
-2.201660156250000000e+04
-2.201623046875000000e+04
-2.201612109375000000e+04
-2.201422265625000000e+04
-2.201369335937500000e+04
-2.201370703125000000e+04
-2.201372265625000000e+04
-2.201423632812500000e+04
-2.201434960937500000e+04
-2.201452148437500000e+04
-2.201450585937500000e+04
-2.201440429687500000e+04
-2.201446875000000000e+04
-2.201460156250000000e+04
-2.201465820312500000e+04
-2.201470117187500000e+04
-2.201499218750000000e+04
-2.201526171875000000e+04
-2.201536328125000000e+04
-2.201545507812500000e+04
-2.201558203125000000e+04
-2.201562890625000000e+04
-2.201566210937500000e+04
-2.201549804687500000e+04
-2.201546484375000000e+04
-2.201551367187500000e+04
-2.201583789062500000e+04
-2.201584570312500000e+04
-2.201583984375000000e+04
-2.201534570312500000e+04
-2.201525585937500000e+04
-2.201429882812500000e+04
-2.201384570312500000e+04
-2.201375976562500000e+04
-2.201356054687500000e+04
-2.201352539062500000e+04
-2.201364648437500000e+04
-2.201722656250000000e+04
-2.201776367187500000e+04
-2.201768359375000000e+04
-2.201583789062500000e+04
-2.201566210937500000e+04
-2.201549414062500000e+04
-2.201534375000000000e+04
-2.201449414062500000e+04
-2.201433593750000000e+04
-2.201408203125000000e+04
-2.201402929687500000e+04
-2.201391015625000000e+04
-2.201378125000000000e+04
-2.201380468750000000e+04
-2.201382031250000000e+04
-2.201384375000000000e+04
-2.201410156250000000e+04
-2.201413281250000000e+04
-2.201415820312500000e+04
-2.201414648437500000e+04
-2.201407226562500000e+04
-2.201401562500000000e+04
-2.201400781250000000e+04
-2.201412695312500000e+04
-2.201422265625000000e+04
-2.201419531250000000e+04
-2.201415820312500000e+04
-2.201398828125000000e+04
-2.201384765625000000e+04
-2.201367382812500000e+04
-2.201374218750000000e+04
-2.201412304687500000e+04
-2.201429492187500000e+04
-2.201483398437500000e+04
-2.201539453125000000e+04
-2.201490429687500000e+04
-2.201481835937500000e+04
-2.201438476562500000e+04
-2.201441992187500000e+04
-2.201455273437500000e+04
-2.201480664062500000e+04
-2.201451171875000000e+04
-2.201424804687500000e+04
-2.201414257812500000e+04
-2.201198632812500000e+04
-2.201200390625000000e+04
-2.201248242187500000e+04
-2.201259179687500000e+04
-2.201321289062500000e+04
-2.201430859375000000e+04
-2.201436718750000000e+04
-2.201447265625000000e+04
-2.201455664062500000e+04
-2.201391406250000000e+04
-2.201379687500000000e+04
-2.201374023437500000e+04
-2.201358593750000000e+04
-2.201286328125000000e+04
-2.201240039062500000e+04
-2.201234570312500000e+04
-2.201211718750000000e+04
-2.201200195312500000e+04
-2.201196289062500000e+04
-2.201194140625000000e+04
-2.201181250000000000e+04
-2.201165234375000000e+04
-2.201154687500000000e+04
-2.201129882812500000e+04
-2.201154882812500000e+04
-2.201198828125000000e+04
-2.201268945312500000e+04
-2.201278710937500000e+04
-2.201333398437500000e+04
-2.201339648437500000e+04
-2.201344531250000000e+04
-2.201364843750000000e+04
-2.201368359375000000e+04
-2.201369921875000000e+04
-2.201370898437500000e+04
-2.201369140625000000e+04
-2.201247460937500000e+04
-2.201233203125000000e+04
-2.201202734375000000e+04
-2.201186718750000000e+04
-2.201155078125000000e+04
-2.200989843750000000e+04
-2.200972460937500000e+04
-2.200938281250000000e+04
-2.200959179687500000e+04
-2.200982031250000000e+04
-2.200990234375000000e+04
-2.200988867187500000e+04
-2.200984570312500000e+04
-2.200984765625000000e+04
-2.200986914062500000e+04
-2.201005859375000000e+04
-2.201103710937500000e+04
-2.201159375000000000e+04
-2.201173046875000000e+04
-2.201196289062500000e+04
-2.201269531250000000e+04
-2.201291210937500000e+04
-2.201316406250000000e+04
-2.201325000000000000e+04
-2.201358789062500000e+04
-2.201364648437500000e+04
-2.201376562500000000e+04
-2.201422265625000000e+04
-2.201422460937500000e+04
-2.201421289062500000e+04
-2.201329882812500000e+04
-2.201205273437500000e+04
-2.201092578125000000e+04
-2.201081250000000000e+04
-2.201051757812500000e+04
-2.201035742187500000e+04
-2.201017773437500000e+04
-2.201076757812500000e+04
-2.201086718750000000e+04
-2.201156640625000000e+04
-2.201138867187500000e+04
-2.201053125000000000e+04
-2.201047656250000000e+04
-2.201034570312500000e+04
-2.201041601562500000e+04
-2.201064453125000000e+04
-2.201088281250000000e+04
-2.201205664062500000e+04
-2.201189257812500000e+04
-2.201178320312500000e+04
-2.201174218750000000e+04
-2.201158789062500000e+04
-2.201151953125000000e+04
-2.201094726562500000e+04
-2.201231250000000000e+04
-2.201270703125000000e+04
-2.201289062500000000e+04
-2.201306640625000000e+04
-2.201327343750000000e+04
-2.201340429687500000e+04
-2.201344140625000000e+04
-2.201343750000000000e+04
-2.201342773437500000e+04
-2.201340625000000000e+04
-2.201333984375000000e+04
-2.201132226562500000e+04
-2.201081250000000000e+04
-2.201072460937500000e+04
-2.201035546875000000e+04
-2.201028710937500000e+04
-2.201022070312500000e+04
-2.201021679687500000e+04
-2.201033203125000000e+04
-2.201083203125000000e+04
-2.201188671875000000e+04
-2.201203125000000000e+04
-2.201209375000000000e+04
-2.201220117187500000e+04
-2.201223632812500000e+04
-2.201228710937500000e+04
-2.201229687500000000e+04
-2.201212304687500000e+04
-2.201208007812500000e+04
-2.201203515625000000e+04
-2.201194531250000000e+04
-2.201172070312500000e+04
-2.201164843750000000e+04
-2.201164257812500000e+04
-2.201166601562500000e+04
-2.201180664062500000e+04
-2.201182421875000000e+04
-2.201182226562500000e+04
-2.201179492187500000e+04
-2.201173242187500000e+04
-2.201175000000000000e+04
-2.201183007812500000e+04
-2.201271484375000000e+04
-2.201278515625000000e+04
-2.201285351562500000e+04
-2.201319335937500000e+04
-2.201319921875000000e+04
-2.201300000000000000e+04
-2.201286914062500000e+04
-2.201200390625000000e+04
-2.201103710937500000e+04
-2.201078125000000000e+04
-2.201062304687500000e+04
-2.201079492187500000e+04
-2.201155664062500000e+04
-2.201180078125000000e+04
-2.201178515625000000e+04
-2.201169531250000000e+04
-2.201069140625000000e+04
-2.201022656250000000e+04
-2.201003906250000000e+04
-2.201042382812500000e+04
-2.201066210937500000e+04
-2.201109765625000000e+04
-2.201117773437500000e+04
-2.201158984375000000e+04
-2.201167187500000000e+04
-2.201174218750000000e+04
-2.201172851562500000e+04
-2.201139648437500000e+04
-2.201123828125000000e+04
-2.201085546875000000e+04
-2.201054296875000000e+04
-2.200992578125000000e+04
-2.200944531250000000e+04
-2.200942382812500000e+04
-2.200945507812500000e+04
-2.200954687500000000e+04
-2.200966796875000000e+04
-2.201063281250000000e+04
-2.201121875000000000e+04
-2.201183789062500000e+04
-2.201215039062500000e+04
-2.201261132812500000e+04
-2.201318945312500000e+04
-2.201376757812500000e+04
-2.201393554687500000e+04
-2.201399609375000000e+04
-2.201337500000000000e+04
-2.201256445312500000e+04
-2.201240429687500000e+04
-2.201225195312500000e+04
-2.201210546875000000e+04
-2.201196875000000000e+04
-2.201127148437500000e+04
-2.201110546875000000e+04
-2.201108789062500000e+04
-2.201125781250000000e+04
-2.201084960937500000e+04
-2.201070507812500000e+04
-2.201016601562500000e+04
-2.201009960937500000e+04
-2.201001562500000000e+04
-2.201001562500000000e+04
-2.201003320312500000e+04
-2.201013085937500000e+04
-2.201016210937500000e+04
-2.201019140625000000e+04
-2.201020507812500000e+04
-2.201023046875000000e+04
-2.201023046875000000e+04
-2.201024414062500000e+04
-2.201025781250000000e+04
-2.201030078125000000e+04
-2.201044140625000000e+04
-2.201095898437500000e+04
-2.201143359375000000e+04
-2.201258984375000000e+04
-2.201237695312500000e+04
-2.201143359375000000e+04
-2.201103710937500000e+04
-2.201091992187500000e+04
-2.201053906250000000e+04
-2.201051562500000000e+04
-2.201064453125000000e+04
-2.201080273437500000e+04
-2.201100585937500000e+04
-2.201114453125000000e+04
-2.201126757812500000e+04
-2.201139257812500000e+04
-2.201157617187500000e+04
-2.201163476562500000e+04
-2.201175390625000000e+04
-2.201177929687500000e+04
-2.201184765625000000e+04
-2.201187109375000000e+04
-2.201192382812500000e+04
-2.201194531250000000e+04
-2.201208007812500000e+04
-2.201202343750000000e+04
-2.201199804687500000e+04
-2.201189257812500000e+04
-2.201184179687500000e+04
-2.201181640625000000e+04
-2.201164062500000000e+04
-2.201161132812500000e+04
-2.201150390625000000e+04
-2.201142968750000000e+04
-2.201139843750000000e+04
-2.201141015625000000e+04
-2.201141601562500000e+04
-2.201149804687500000e+04
-2.201169335937500000e+04
-2.201175000000000000e+04
-2.201181640625000000e+04
-2.201201171875000000e+04
-2.201236328125000000e+04
-2.201231640625000000e+04
-2.201193750000000000e+04
-2.201185742187500000e+04
-2.201178125000000000e+04
-2.201163476562500000e+04
-2.201181640625000000e+04
-2.201217187500000000e+04
-2.201223242187500000e+04
-2.201234960937500000e+04
-2.201279882812500000e+04
-2.201281640625000000e+04
-2.201281835937500000e+04
-2.201267773437500000e+04
-2.201228906250000000e+04
-2.201082421875000000e+04
-2.201103906250000000e+04
-2.201128515625000000e+04
-2.201227734375000000e+04
-2.201285351562500000e+04
-2.201288085937500000e+04
-2.201287109375000000e+04
-2.201278906250000000e+04
-2.201272265625000000e+04
-2.201147656250000000e+04
-2.201059570312500000e+04
-2.201042187500000000e+04
-2.201022656250000000e+04
-2.200997851562500000e+04
-2.200982812500000000e+04
-2.200956640625000000e+04
-2.200905664062500000e+04
-2.200904101562500000e+04
-2.200908789062500000e+04
-2.201038867187500000e+04
-2.201055468750000000e+04
-2.201087695312500000e+04
-2.201173632812500000e+04
-2.201210937500000000e+04
-2.201219726562500000e+04
-2.201166992187500000e+04
-2.201058007812500000e+04
-2.200996679687500000e+04
-2.200979101562500000e+04
-2.200959375000000000e+04
-2.200949414062500000e+04
-2.200948437500000000e+04
-2.200968945312500000e+04
-2.201017578125000000e+04
-2.201031250000000000e+04
-2.201038085937500000e+04
-2.201045312500000000e+04
-2.201051953125000000e+04
-2.201072070312500000e+04
-2.201094531250000000e+04
-2.201100000000000000e+04
-2.201125585937500000e+04
-2.201114062500000000e+04
-2.201109179687500000e+04
-2.201103320312500000e+04
-2.201090429687500000e+04
-2.201048632812500000e+04
-2.201044531250000000e+04
-2.201037500000000000e+04
-2.201034765625000000e+04
-2.201040429687500000e+04
-2.201087890625000000e+04
-2.201101562500000000e+04
-2.201121484375000000e+04
-2.201135351562500000e+04
-2.201138085937500000e+04
-2.201140625000000000e+04
-2.201145507812500000e+04
-2.201138867187500000e+04
-2.201114453125000000e+04
-2.201051367187500000e+04
-2.201001562500000000e+04
-2.200890234375000000e+04
-2.200811914062500000e+04
-2.200803320312500000e+04
-2.200838671875000000e+04
-2.200907031250000000e+04
-2.201010351562500000e+04
-2.200996289062500000e+04
-2.200986328125000000e+04
-2.200981250000000000e+04
-2.200964453125000000e+04
-2.200914648437500000e+04
-2.200902539062500000e+04
-2.200876953125000000e+04
-2.200874414062500000e+04
-2.200880859375000000e+04
-2.200891015625000000e+04
-2.200998828125000000e+04
-2.201027148437500000e+04
-2.201069726562500000e+04
-2.201164843750000000e+04
-2.201143359375000000e+04
-2.201131054687500000e+04
-2.201122070312500000e+04
-2.201131445312500000e+04
-2.201142382812500000e+04
-2.201133789062500000e+04
-2.201053125000000000e+04
-2.200958007812500000e+04
-2.200929101562500000e+04
-2.200886718750000000e+04
-2.200828906250000000e+04
-2.200764453125000000e+04
-2.200756445312500000e+04
-2.200747460937500000e+04
-2.200732031250000000e+04
-2.200705664062500000e+04
-2.200706250000000000e+04
-2.200714843750000000e+04
-2.200720703125000000e+04
-2.200723242187500000e+04
-2.200725976562500000e+04
-2.200732812500000000e+04
-2.200786914062500000e+04
-2.200826757812500000e+04
-2.200943750000000000e+04
-2.200997265625000000e+04
-2.201049609375000000e+04
-2.201066406250000000e+04
-2.201067578125000000e+04
-2.201061523437500000e+04
-2.201029101562500000e+04
-2.201020507812500000e+04
-2.200973828125000000e+04
-2.200938867187500000e+04
-2.200939843750000000e+04
-2.200949804687500000e+04
-2.201022656250000000e+04
-2.201070312500000000e+04
-2.201083007812500000e+04
-2.201080664062500000e+04
-2.201077929687500000e+04
-2.201074218750000000e+04
-2.201023437500000000e+04
-2.201009960937500000e+04
-2.201004492187500000e+04
-2.201002929687500000e+04
-2.201013085937500000e+04
-2.201135156250000000e+04
-2.201143750000000000e+04
-2.201171679687500000e+04
-2.201163867187500000e+04
-2.201153515625000000e+04
-2.201102343750000000e+04
-2.201038671875000000e+04
-2.201021289062500000e+04
-2.201013476562500000e+04
-2.200984765625000000e+04
-2.200989062500000000e+04
-2.201000585937500000e+04
-2.201022851562500000e+04
-2.201046093750000000e+04
-2.201050781250000000e+04
-2.201057226562500000e+04
-2.201060546875000000e+04
-2.201067968750000000e+04
-2.201075976562500000e+04
-2.201100195312500000e+04
-2.201080468750000000e+04
-2.200949023437500000e+04
-2.200908398437500000e+04
-2.200854492187500000e+04
-2.200830664062500000e+04
-2.200823828125000000e+04
-2.200795312500000000e+04
-2.200782812500000000e+04
-2.200772656250000000e+04
-2.200766601562500000e+04
-2.200685742187500000e+04
-2.200664257812500000e+04
-2.200618945312500000e+04
-2.200582031250000000e+04
-2.200544921875000000e+04
-2.200522070312500000e+04
-2.200493359375000000e+04
-2.200480078125000000e+04
-2.200467382812500000e+04
-2.200469921875000000e+04
-2.200480859375000000e+04
-2.200510351562500000e+04
-2.200522460937500000e+04
-2.200527734375000000e+04
-2.200562500000000000e+04
-2.200581054687500000e+04
-2.200598437500000000e+04
-2.200598632812500000e+04
-2.200599023437500000e+04
-2.200597851562500000e+04
-2.200600585937500000e+04
-2.200608203125000000e+04
-2.200609179687500000e+04
-2.200612304687500000e+04
-2.200619335937500000e+04
-2.200620703125000000e+04
-2.200627539062500000e+04
-2.200636328125000000e+04
-2.200647460937500000e+04
-2.200658984375000000e+04
-2.200675195312500000e+04
-2.200691796875000000e+04
-2.200755859375000000e+04
-2.200834375000000000e+04
-2.200836914062500000e+04
-2.200849414062500000e+04
-2.200866992187500000e+04
-2.200866406250000000e+04
-2.200780664062500000e+04
-2.200773828125000000e+04
-2.200766601562500000e+04
-2.200736718750000000e+04
-2.200731640625000000e+04
-2.200716015625000000e+04
-2.200709375000000000e+04
-2.200704492187500000e+04
-2.200704492187500000e+04
-2.200710156250000000e+04
-2.200717187500000000e+04
-2.200723828125000000e+04
-2.200726757812500000e+04
-2.200783789062500000e+04
-2.200822851562500000e+04
-2.200850976562500000e+04
-2.200854882812500000e+04
-2.200858984375000000e+04
-2.200871484375000000e+04
-2.200866992187500000e+04
-2.200877929687500000e+04
-2.200894335937500000e+04
-2.200887890625000000e+04
-2.200882226562500000e+04
-2.200874804687500000e+04
-2.200809179687500000e+04
-2.200452148437500000e+04
-2.200424804687500000e+04
-2.200427734375000000e+04
-2.200437500000000000e+04
-2.200445312500000000e+04
-2.200506835937500000e+04
-2.200590039062500000e+04
-2.200684375000000000e+04
-2.200707031250000000e+04
-2.200706640625000000e+04
-2.200672070312500000e+04
-2.200651562500000000e+04
-2.200648437500000000e+04
-2.200652343750000000e+04
-2.200762695312500000e+04
-2.200753515625000000e+04
-2.200748242187500000e+04
-2.200742187500000000e+04
-2.200633203125000000e+04
-2.200648828125000000e+04
-2.200658398437500000e+04
-2.200671289062500000e+04
-2.200670312500000000e+04
-2.200670117187500000e+04
-2.200662890625000000e+04
-2.200657226562500000e+04
-2.200655468750000000e+04
-2.200644335937500000e+04
-2.200642773437500000e+04
-2.200641796875000000e+04
-2.200653320312500000e+04
-2.200677539062500000e+04
-2.200668359375000000e+04
-2.200640429687500000e+04
-2.200635937500000000e+04
-2.200636328125000000e+04
-2.200642773437500000e+04
-2.200647070312500000e+04
-2.200741796875000000e+04
-2.200766601562500000e+04
-2.200779492187500000e+04
-2.200849804687500000e+04
-2.200899023437500000e+04
-2.200877734375000000e+04
-2.200836718750000000e+04
-2.200761914062500000e+04
-2.200740429687500000e+04
-2.200718750000000000e+04
-2.200630859375000000e+04
-2.200594335937500000e+04
-2.200583984375000000e+04
-2.200571484375000000e+04
-2.200537890625000000e+04
-2.200537890625000000e+04
-2.200542968750000000e+04
-2.200549609375000000e+04
-2.200553906250000000e+04
-2.200559570312500000e+04
-2.200571679687500000e+04
-2.200578320312500000e+04
-2.200584570312500000e+04
-2.200591796875000000e+04
-2.200598828125000000e+04
-2.200605273437500000e+04
-2.200640234375000000e+04
-2.200610156250000000e+04
-2.200603515625000000e+04
-2.200596289062500000e+04
-2.200575976562500000e+04
-2.200553710937500000e+04
-2.200511914062500000e+04
-2.200521875000000000e+04
-2.200566015625000000e+04
-2.200573242187500000e+04
-2.200624414062500000e+04
-2.200624609375000000e+04
-2.200587890625000000e+04
-2.200555273437500000e+04
-2.200508789062500000e+04
-2.200499023437500000e+04
-2.200481445312500000e+04
-2.200472851562500000e+04
-2.200453710937500000e+04
-2.200443554687500000e+04
-2.200479101562500000e+04
-2.200503125000000000e+04
-2.200568164062500000e+04
-2.200577539062500000e+04
-2.200608398437500000e+04
-2.200703906250000000e+04
-2.200744726562500000e+04
-2.200792773437500000e+04
-2.200791601562500000e+04
-2.200703320312500000e+04
-2.200644921875000000e+04
-2.200552929687500000e+04
-2.200555078125000000e+04
-2.200585351562500000e+04
-2.200664843750000000e+04
-2.200792968750000000e+04
-2.200853515625000000e+04
-2.200841992187500000e+04
-2.200834375000000000e+04
-2.200815234375000000e+04
-2.200705468750000000e+04
-2.200639062500000000e+04
-2.200641406250000000e+04
-2.200747851562500000e+04
-2.200785742187500000e+04
-2.200849218750000000e+04
-2.200867578125000000e+04
-2.200854101562500000e+04
-2.200741601562500000e+04
-2.200557812500000000e+04
-2.200562890625000000e+04
-2.200538281250000000e+04
-2.200531054687500000e+04
-2.200522070312500000e+04
-2.200445703125000000e+04
-2.200399023437500000e+04
-2.200392578125000000e+04
-2.200390820312500000e+04
-2.200452539062500000e+04
-2.200454882812500000e+04
-2.200457226562500000e+04
-2.200456250000000000e+04
-2.200453125000000000e+04
-2.200447265625000000e+04
-2.200439257812500000e+04
-2.200438476562500000e+04
-2.200438476562500000e+04
-2.200440234375000000e+04
-2.200450000000000000e+04
-2.200455664062500000e+04
-2.200439843750000000e+04
-2.200367578125000000e+04
-2.200360546875000000e+04
-2.200341015625000000e+04
-2.200374804687500000e+04
-2.200381640625000000e+04
-2.200392578125000000e+04
-2.200408203125000000e+04
-2.200448828125000000e+04
-2.200455078125000000e+04
-2.200546289062500000e+04
-2.200628515625000000e+04
-2.200665625000000000e+04
-2.200658789062500000e+04
-2.200646289062500000e+04
-2.200536132812500000e+04
-2.200518750000000000e+04
-2.200362109375000000e+04
-2.200341210937500000e+04
-2.200338085937500000e+04
-2.200335937500000000e+04
-2.200338671875000000e+04
-2.200346093750000000e+04
-2.200385351562500000e+04
-2.200408203125000000e+04
-2.200415820312500000e+04
-2.200420703125000000e+04
-2.200425976562500000e+04
-2.200426562500000000e+04
-2.200426171875000000e+04
-2.200426953125000000e+04
-2.200425585937500000e+04
-2.200425195312500000e+04
-2.200425000000000000e+04
-2.200429492187500000e+04
-2.200451953125000000e+04
-2.200487109375000000e+04
-2.200510351562500000e+04
-2.200525390625000000e+04
-2.200532421875000000e+04
-2.200539453125000000e+04
-2.200595507812500000e+04
-2.200603710937500000e+04
-2.200606445312500000e+04
-2.200611132812500000e+04
-2.200610156250000000e+04
-2.200596289062500000e+04
-2.200576757812500000e+04
-2.200557812500000000e+04
-2.200547460937500000e+04
-2.200508984375000000e+04
-2.200495117187500000e+04
-2.200341992187500000e+04
-2.200310156250000000e+04
-2.200272460937500000e+04
-2.200241796875000000e+04
-2.200270117187500000e+04
-2.200314648437500000e+04
-2.200328515625000000e+04
-2.200341210937500000e+04
-2.200322851562500000e+04
-2.200295898437500000e+04
-2.200287500000000000e+04
-2.200182617187500000e+04
-2.200179296875000000e+04
-2.200207226562500000e+04
-2.200252734375000000e+04
-2.200331250000000000e+04
-2.200382226562500000e+04
-2.200468945312500000e+04
-2.200510742187500000e+04
-2.200523632812500000e+04
-2.200525000000000000e+04
-2.200525976562500000e+04
-2.200534179687500000e+04
-2.200538476562500000e+04
-2.200570898437500000e+04
-2.200646484375000000e+04
-2.200675000000000000e+04
-2.200718945312500000e+04
-2.200813281250000000e+04
-2.200814843750000000e+04
-2.200768164062500000e+04
-2.200750390625000000e+04
-2.200659570312500000e+04
-2.200460742187500000e+04
-2.200433984375000000e+04
-2.200314843750000000e+04
-2.200317773437500000e+04
-2.200347265625000000e+04
-2.200360742187500000e+04
-2.200376171875000000e+04
-2.200425195312500000e+04
-2.200441406250000000e+04
