-4.686102390289306641e+00 2.117936611175537109e-01 1.802161335945129395e-01 2.117936611175537109e-01 8.891507148742675781e+00 -2.762402407824993134e-02 1.802161335945129395e-01 -2.762402407824993134e-02 1.613712501525878906e+01
1.270695590972900391e+01 3.116783618927001953e+00 3.291356801986694336e+00 3.116783618927001953e+00 1.423566722869873047e+01 -9.559092521667480469e-01 3.291356801986694336e+00 -9.559092521667480469e-01 3.212960433959960938e+01
1.691211891174316406e+01 3.391808986663818359e+00 3.855683088302612305e+00 3.391808986663818359e+00 1.636329269409179688e+01 -1.113909006118774414e+00 3.855683088302612305e+00 -1.113909006118774414e+00 3.572641372680664062e+01
2.830551147460937500e+01 4.654200553894042969e+00 5.298956394195556641e+00 4.654200553894042969e+00 2.075681877136230469e+01 -1.710850358009338379e+00 5.298956394195556641e+00 -1.710850358009338379e+00 4.532240295410156250e+01
3.670196151733398438e+01 5.010486125946044922e+00 6.062083244323730469e+00 5.010486125946044922e+00 2.843491363525390625e+01 -2.287379264831542969e+00 6.062083244323730469e+00 -2.287379264831542969e+00 5.453591537475585938e+01
2.399310493469238281e+01 3.285020351409912109e+00 4.429388523101806641e+00 3.285020351409912109e+00 4.902516937255859375e+01 -4.995240211486816406e+00 4.429388523101806641e+00 -4.995240211486816406e+00 5.196637725830078125e+01
1.689977264404296875e+01 2.617084741592407227e+00 4.098258972167968750e+00 2.617084741592407227e+00 4.886100006103515625e+01 -6.589132308959960938e+00 4.098258972167968750e+00 -6.589132308959960938e+00 4.510705184936523438e+01
1.193960475921630859e+01 2.713854551315307617e+00 4.485905170440673828e+00 2.713854551315307617e+00 4.560116577148437500e+01 -7.509877681732177734e+00 4.485905170440673828e+00 -7.509877681732177734e+00 3.846636962890625000e+01
1.091326522827148438e+01 3.005354642868041992e+00 4.716669082641601562e+00 3.005354642868041992e+00 4.460959625244140625e+01 -7.628251552581787109e+00 4.716669082641601562e+00 -7.628251552581787109e+00 3.662498092651367188e+01
9.334239006042480469e+00 3.855327844619750977e+00 5.695514202117919922e+00 3.855327844619750977e+00 4.086390686035156250e+01 -7.544484138488769531e+00 5.695514202117919922e+00 -7.544484138488769531e+00 3.208491134643554688e+01
9.168395996093750000e+00 4.191907405853271484e+00 6.009485721588134766e+00 4.191907405853271484e+00 4.003737640380859375e+01 -7.432812690734863281e+00 6.009485721588134766e+00 -7.432812690734863281e+00 3.044044494628906250e+01
9.226814270019531250e+00 4.387281894683837891e+00 6.165493488311767578e+00 4.387281894683837891e+00 3.941238784790039062e+01 -7.337244033813476562e+00 6.165493488311767578e+00 -7.337244033813476562e+00 2.983509635925292969e+01
9.360588073730468750e+00 5.306665420532226562e+00 7.419758319854736328e+00 5.306665420532226562e+00 3.654822158813476562e+01 -6.599824905395507812e+00 7.419758319854736328e+00 -6.599824905395507812e+00 2.685550308227539062e+01
1.039664459228515625e+01 5.448677539825439453e+00 8.177282333374023438e+00 5.448677539825439453e+00 3.564858627319335938e+01 -5.084209442138671875e+00 8.177282333374023438e+00 -5.084209442138671875e+00 2.483590507507324219e+01
1.127278804779052734e+01 5.014545917510986328e+00 8.109487533569335938e+00 5.014545917510986328e+00 3.637704849243164062e+01 -4.076794147491455078e+00 8.109487533569335938e+00 -4.076794147491455078e+00 2.475701904296875000e+01
1.333521080017089844e+01 3.933386802673339844e+00 7.887145996093750000e+00 3.933386802673339844e+00 4.215150070190429688e+01 -1.415388822555541992e+00 7.887145996093750000e+00 -1.415388822555541992e+00 2.608171081542968750e+01
2.420840835571289062e+01 4.003066062927246094e+00 1.015139102935791016e+01 4.003066062927246094e+00 5.898495864868164062e+01 2.445202827453613281e+00 1.015139102935791016e+01 2.445202827453613281e+00 3.856726074218750000e+01
2.634799385070800781e+01 4.007709980010986328e+00 1.057928562164306641e+01 4.007709980010986328e+00 6.103406906127929688e+01 2.397057771682739258e+00 1.057928562164306641e+01 2.397057771682739258e+00 4.067739868164062500e+01
3.667729949951171875e+01 3.103346824645996094e+00 1.068213272094726562e+01 3.103346824645996094e+00 6.885980987548828125e+01 7.483236193656921387e-01 1.068213272094726562e+01 7.483236193656921387e-01 5.007543563842773438e+01
4.562467956542968750e+01 1.161417484283447266e+00 8.668527603149414062e+00 1.161417484283447266e+00 7.397095489501953125e+01 -1.771036505699157715e+00 8.668527603149414062e+00 -1.771036505699157715e+00 5.800789642333984375e+01
4.841797256469726562e+01 3.704259395599365234e-01 7.470767498016357422e+00 3.704259395599365234e-01 7.543565368652343750e+01 -2.864233732223510742e+00 7.470767498016357422e+00 -2.864233732223510742e+00 6.088754653930664062e+01
5.107329559326171875e+01 -5.394489765167236328e-01 6.144170284271240234e+00 -5.394489765167236328e-01 7.684178161621093750e+01 -4.037296772003173828e+00 6.144170284271240234e+00 -4.037296772003173828e+00 6.369149780273437500e+01
5.477326965332031250e+01 -1.965143918991088867e+00 3.944715499877929688e+00 -1.965143918991088867e+00 7.858576202392578125e+01 -6.022667407989501953e+00 3.944715499877929688e+00 -6.022667407989501953e+00 6.792127227783203125e+01
5.692961502075195312e+01 -2.851465940475463867e+00 2.333091497421264648e+00 -2.851465940475463867e+00 7.949241638183593750e+01 -7.328152656555175781e+00 2.333091497421264648e+00 -7.328152656555175781e+00 7.044403839111328125e+01
5.800360488891601562e+01 -3.261971235275268555e+00 1.554755687713623047e+00 -3.261971235275268555e+00 7.991038513183593750e+01 -7.926043510437011719e+00 1.554755687713623047e+00 -7.926043510437011719e+00 7.158813476562500000e+01
5.893220520019531250e+01 -3.651917457580566406e+00 7.579320073127746582e-01 -3.651917457580566406e+00 8.019097137451171875e+01 -8.500194549560546875e+00 7.579320073127746582e-01 -8.500194549560546875e+00 7.268756866455078125e+01
5.990844726562500000e+01 -4.052792072296142578e+00 -9.833243675529956818e-03 -4.052792072296142578e+00 8.043482208251953125e+01 -9.073387145996093750e+00 -9.833243675529956818e-03 -9.073387145996093750e+00 7.380117797851562500e+01
6.089584350585937500e+01 -4.426780700683593750e+00 -7.233005166053771973e-01 -4.426780700683593750e+00 8.059603118896484375e+01 -9.648169517517089844e+00 -7.233005166053771973e-01 -9.648169517517089844e+00 7.492149353027343750e+01
6.842895507812500000e+01 -6.377759456634521484e+00 -4.804590225219726562e+00 -6.377759456634521484e+00 7.857994842529296875e+01 -1.271904182434082031e+01 -4.804590225219726562e+00 -1.271904182434082031e+01 8.025504302978515625e+01
7.243678283691406250e+01 -5.413632869720458984e+00 -5.034508228302001953e+00 -5.413632869720458984e+00 7.519126129150390625e+01 -1.142166900634765625e+01 -5.034508228302001953e+00 -1.142166900634765625e+01 7.819166564941406250e+01
7.385252380371093750e+01 -3.589990377426147461e+00 -4.884928703308105469e+00 -3.589990377426147461e+00 7.291359710693359375e+01 -1.007670402526855469e+01 -4.884928703308105469e+00 -1.007670402526855469e+01 7.408858489990234375e+01
7.349931335449218750e+01 -2.981215715408325195e+00 -4.722140789031982422e+00 -2.981215715408325195e+00 7.196964263916015625e+01 -9.443701744079589844e+00 -4.722140789031982422e+00 -9.443701744079589844e+00 7.219229888916015625e+01
4.660752487182617188e+01 -1.820480942726135254e+00 3.939016759395599365e-01 -1.820480942726135254e+00 7.095358276367187500e+01 -7.639051437377929688e+00 3.939016759395599365e-01 -7.639051437377929688e+00 6.122257232666015625e+01
2.906598472595214844e+01 -2.638172149658203125e+00 -4.485690116882324219e+00 -2.638172149658203125e+00 7.509552764892578125e+01 -7.355115413665771484e+00 -4.485690116882324219e+00 -7.355115413665771484e+00 7.046488952636718750e+01
2.795157623291015625e+01 -2.594300031661987305e+00 -4.697316169738769531e+00 -2.594300031661987305e+00 7.506445312500000000e+01 -7.410923480987548828e+00 -4.697316169738769531e+00 -7.410923480987548828e+00 6.986003875732421875e+01
2.134091949462890625e+01 -2.029699087142944336e+00 -4.279736995697021484e+00 -2.029699087142944336e+00 7.334969329833984375e+01 -7.561050891876220703e+00 -4.279736995697021484e+00 -7.561050891876220703e+00 5.947698593139648438e+01
2.012539863586425781e+01 -2.006950378417968750e+00 -3.731096982955932617e+00 -2.006950378417968750e+00 7.260126495361328125e+01 -7.578883171081542969e+00 -3.731096982955932617e+00 -7.578883171081542969e+00 5.576309204101562500e+01
1.955452156066894531e+01 -1.974738001823425293e+00 -3.090005874633789062e+00 -1.974738001823425293e+00 7.185610961914062500e+01 -7.409972667694091797e+00 -3.090005874633789062e+00 -7.409972667694091797e+00 5.200631332397460938e+01
1.950273513793945312e+01 -1.980150580406188965e+00 -1.705704092979431152e+00 -1.980150580406188965e+00 6.990697479248046875e+01 -6.629012107849121094e+00 -1.705704092979431152e+00 -6.629012107849121094e+00 4.561463546752929688e+01
2.053193473815917969e+01 -2.025905370712280273e+00 -9.534642100334167480e-01 -2.025905370712280273e+00 6.825426483154296875e+01 -5.868338584899902344e+00 -9.534642100334167480e-01 -5.868338584899902344e+00 4.179576492309570312e+01
2.101368141174316406e+01 -1.979751825332641602e+00 -7.407328486442565918e-01 -1.979751825332641602e+00 6.772728729248046875e+01 -5.549882888793945312e+00 -7.407328486442565918e-01 -5.549882888793945312e+00 4.066214370727539062e+01
2.284836769104003906e+01 -2.124435424804687500e+00 -2.573907971382141113e-01 -2.124435424804687500e+00 6.593754577636718750e+01 -4.494741916656494141e+00 -2.573907971382141113e-01 -4.494741916656494141e+00 3.762437057495117188e+01
2.655852890014648438e+01 -2.572393894195556641e+00 -6.621289253234863281e-02 -2.572393894195556641e+00 6.215479278564453125e+01 -2.596293687820434570e+00 -6.621289253234863281e-02 -2.596293687820434570e+00 3.465007400512695312e+01
3.081743431091308594e+01 -3.241901636123657227e+00 -3.746313154697418213e-01 -3.241901636123657227e+00 5.940559768676757812e+01 -1.257018685340881348e+00 -3.746313154697418213e-01 -1.257018685340881348e+00 3.294385528564453125e+01
3.610570144653320312e+01 -4.485522270202636719e+00 -9.302362799644470215e-01 -4.485522270202636719e+00 5.662027359008789062e+01 2.306196391582489014e-01 -9.302362799644470215e-01 2.306196391582489014e-01 3.236959075927734375e+01
3.715811920166015625e+01 -4.794329643249511719e+00 -1.033899545669555664e+00 -4.794329643249511719e+00 5.616537094116210938e+01 4.525643885135650635e-01 -1.033899545669555664e+00 4.525643885135650635e-01 3.234484481811523438e+01
3.957814788818359375e+01 -5.385449886322021484e+00 -1.291489839553833008e+00 -5.385449886322021484e+00 5.498064804077148438e+01 7.623060345649719238e-01 -1.291489839553833008e+00 7.623060345649719238e-01 3.226506423950195312e+01
4.304764556884765625e+01 -6.562287807464599609e+00 -2.048330068588256836e+00 -6.562287807464599609e+00 5.387042617797851562e+01 1.076522350311279297e+00 -2.048330068588256836e+00 1.076522350311279297e+00 3.238857269287109375e+01
4.536904525756835938e+01 -7.696956157684326172e+00 -2.812395095825195312e+00 -7.696956157684326172e+00 5.319062042236328125e+01 1.332244396209716797e+00 -2.812395095825195312e+00 1.332244396209716797e+00 3.329046630859375000e+01
4.604177856445312500e+01 -8.083883285522460938e+00 -3.065803766250610352e+00 -8.083883285522460938e+00 5.302134323120117188e+01 1.379811048507690430e+00 -3.065803766250610352e+00 1.379811048507690430e+00 3.374738693237304688e+01
4.747285461425781250e+01 -9.892868995666503906e+00 -5.118502616882324219e+00 -9.892868995666503906e+00 5.217801666259765625e+01 1.239564418792724609e+00 -5.118502616882324219e+00 1.239564418792724609e+00 3.497042846679687500e+01
4.689511108398437500e+01 -1.037429141998291016e+01 -5.930963516235351562e+00 -1.037429141998291016e+01 5.223315429687500000e+01 1.086040139198303223e+00 -5.930963516235351562e+00 1.086040139198303223e+00 3.560530471801757812e+01
4.427851867675781250e+01 -1.123544120788574219e+01 -7.298750400543212891e+00 -1.123544120788574219e+01 5.243292999267578125e+01 1.166773080825805664e+00 -7.298750400543212891e+00 1.166773080825805664e+00 3.717224121093750000e+01
3.355030441284179688e+01 -1.229062652587890625e+01 -8.987833023071289062e+00 -1.229062652587890625e+01 5.121979141235351562e+01 1.768867731094360352e+00 -8.987833023071289062e+00 1.768867731094360352e+00 3.748070526123046875e+01
3.109341812133789062e+01 -1.194655418395996094e+01 -8.607604980468750000e+00 -1.194655418395996094e+01 5.020019149780273438e+01 2.338273763656616211e+00 -8.607604980468750000e+00 2.338273763656616211e+00 3.699034118652343750e+01
3.003367805480957031e+01 -1.157583045959472656e+01 -8.219978332519531250e+00 -1.157583045959472656e+01 4.966194534301757812e+01 2.558063745498657227e+00 -8.219978332519531250e+00 2.558063745498657227e+00 3.666716766357421875e+01
3.100395774841308594e+01 -1.021915721893310547e+01 -8.633306503295898438e+00 -1.021915721893310547e+01 4.993544769287109375e+01 1.992806434631347656e+00 -8.633306503295898438e+00 1.992806434631347656e+00 3.739545059204101562e+01
3.721632385253906250e+01 -8.862925529479980469e+00 -1.227570438385009766e+01 -8.862925529479980469e+00 5.543994903564453125e+01 -2.150013744831085205e-01 -1.227570438385009766e+01 -2.150013744831085205e-01 4.169538116455078125e+01
4.182608032226562500e+01 -7.667732715606689453e+00 -1.552230834960937500e+01 -7.667732715606689453e+00 5.944461441040039062e+01 -1.210137963294982910e+00 -1.552230834960937500e+01 -1.210137963294982910e+00 4.640657424926757812e+01
4.841827774047851562e+01 -5.910142898559570312e+00 -1.962086105346679688e+01 -5.910142898559570312e+00 6.329185104370117188e+01 -1.759586095809936523e+00 -1.962086105346679688e+01 -1.759586095809936523e+00 5.315140533447265625e+01
5.453404617309570312e+01 -4.361218929290771484e+00 -2.161867904663085938e+01 -4.361218929290771484e+00 6.694557189941406250e+01 -1.594711780548095703e+00 -2.161867904663085938e+01 -1.594711780548095703e+00 6.007873535156250000e+01
5.553655624389648438e+01 -4.228983402252197266e+00 -2.169958496093750000e+01 -4.228983402252197266e+00 6.731428527832031250e+01 -1.424270749092102051e+00 -2.169958496093750000e+01 -1.424270749092102051e+00 6.117975997924804688e+01
5.758108901977539062e+01 -4.177122592926025391e+00 -2.167368507385253906e+01 -4.177122592926025391e+00 6.804465484619140625e+01 -8.200219273567199707e-01 -2.167368507385253906e+01 -8.200219273567199707e-01 6.331122207641601562e+01
5.999341964721679688e+01 -4.347778320312500000e+00 -2.103441619873046875e+01 -4.347778320312500000e+00 6.835705566406250000e+01 2.191993594169616699e-01 -2.103441619873046875e+01 2.191993594169616699e-01 6.681773376464843750e+01
6.346125030517578125e+01 -4.906846523284912109e+00 -1.862113571166992188e+01 -4.906846523284912109e+00 6.860942840576171875e+01 2.728268146514892578e+00 -1.862113571166992188e+01 2.728268146514892578e+00 7.094871520996093750e+01
6.448994445800781250e+01 -5.204418659210205078e+00 -1.702754020690917969e+01 -5.204418659210205078e+00 6.819795989990234375e+01 4.215873241424560547e+00 -1.702754020690917969e+01 4.215873241424560547e+00 7.261018371582031250e+01
6.646891784667968750e+01 -6.204677104949951172e+00 -1.485600471496582031e+01 -6.204677104949951172e+00 6.750040435791015625e+01 6.131356716156005859e+00 -1.485600471496582031e+01 6.131356716156005859e+00 7.496097564697265625e+01
6.933316802978515625e+01 -7.862660884857177734e+00 -1.117061519622802734e+01 -7.862660884857177734e+00 6.551644134521484375e+01 9.338450431823730469e+00 -1.117061519622802734e+01 9.338450431823730469e+00 7.968827056884765625e+01
7.445369720458984375e+01 -9.801893234252929688e+00 -7.513312339782714844e+00 -9.801893234252929688e+00 6.434609222412109375e+01 1.210643577575683594e+01 -7.513312339782714844e+00 1.210643577575683594e+01 8.559153747558593750e+01
8.409852600097656250e+01 -1.176653671264648438e+01 -6.063589572906494141e+00 -1.176653671264648438e+01 6.932555389404296875e+01 1.324174022674560547e+01 -6.063589572906494141e+00 1.324174022674560547e+01 9.197960662841796875e+01
8.820454406738281250e+01 -1.250204277038574219e+01 -5.927453994750976562e+00 -1.250204277038574219e+01 7.376049804687500000e+01 1.331141185760498047e+01 -5.927453994750976562e+00 1.331141185760498047e+01 9.441239929199218750e+01
9.094723510742187500e+01 -1.380931758880615234e+01 -6.355370044708251953e+00 -1.380931758880615234e+01 7.976000213623046875e+01 1.287514781951904297e+01 -6.355370044708251953e+00 1.287514781951904297e+01 9.700070953369140625e+01
9.135126495361328125e+01 -1.402507019042968750e+01 -6.301913261413574219e+00 -1.402507019042968750e+01 8.099353790283203125e+01 1.269182205200195312e+01 -6.301913261413574219e+00 1.269182205200195312e+01 9.735155487060546875e+01
9.194396209716796875e+01 -1.526260089874267578e+01 -5.842676162719726562e+00 -1.526260089874267578e+01 8.588311767578125000e+01 1.039568519592285156e+01 -5.842676162719726562e+00 1.039568519592285156e+01 9.682968902587890625e+01
8.481899261474609375e+01 -1.609003639221191406e+01 -3.235233783721923828e+00 -1.609003639221191406e+01 8.790248870849609375e+01 -1.218735575675964355e+00 -3.235233783721923828e+00 -1.218735575675964355e+00 8.216096496582031250e+01
8.376865386962890625e+01 -1.622356033325195312e+01 -2.309621810913085938e+00 -1.622356033325195312e+01 8.644514465332031250e+01 -2.743041992187500000e+00 -2.309621810913085938e+00 -2.743041992187500000e+00 8.008328247070312500e+01
8.660710144042968750e+01 -1.646218109130859375e+01 6.542273044586181641e+00 -1.646218109130859375e+01 8.264192199707031250e+01 -9.129680633544921875e+00 6.542273044586181641e+00 -9.129680633544921875e+00 6.300685501098632812e+01
8.810876464843750000e+01 -1.601562118530273438e+01 8.104621887207031250e+00 -1.601562118530273438e+01 8.301692199707031250e+01 -9.396790504455566406e+00 8.104621887207031250e+00 -9.396790504455566406e+00 6.060361480712890625e+01
1.001657867431640625e+02 -1.227385902404785156e+01 1.465515899658203125e+01 -1.227385902404785156e+01 8.618400573730468750e+01 -1.674898505210876465e+00 1.465515899658203125e+01 -1.674898505210876465e+00 6.221752929687500000e+01
9.918929290771484375e+01 -1.180246639251708984e+01 1.452771854400634766e+01 -1.180246639251708984e+01 8.567697906494140625e+01 -9.353939890861511230e-01 1.452771854400634766e+01 -9.353939890861511230e-01 6.314794158935546875e+01
9.808763885498046875e+01 -1.137459659576416016e+01 1.433674621582031250e+01 -1.137459659576416016e+01 8.515988159179687500e+01 -1.177852079272270203e-01 1.433674621582031250e+01 -1.177852079272270203e-01 6.419919586181640625e+01
7.826567077636718750e+01 -6.754379272460937500e+00 1.007560157775878906e+01 -6.754379272460937500e+00 7.958086395263671875e+01 9.223745346069335938e+00 1.007560157775878906e+01 9.223745346069335938e+00 6.732081604003906250e+01
7.659151458740234375e+01 -6.416107177734375000e+00 9.369411468505859375e+00 -6.416107177734375000e+00 7.932105255126953125e+01 9.502710342407226562e+00 9.369411468505859375e+00 9.502710342407226562e+00 6.738134765625000000e+01
6.202593231201171875e+01 -3.243559122085571289e+00 4.235261380672454834e-01 -3.243559122085571289e+00 8.049287414550781250e+01 9.213678359985351562e+00 4.235261380672454834e-01 9.213678359985351562e+00 6.396007537841796875e+01
5.870207977294921875e+01 -2.244192838668823242e+00 -2.177158594131469727e+00 -2.244192838668823242e+00 8.237269592285156250e+01 6.949394702911376953e+00 -2.177158594131469727e+00 6.949394702911376953e+00 6.316264343261718750e+01
6.083637237548828125e+01 -4.299171924591064453e+00 -8.947521209716796875e+00 -4.299171924591064453e+00 8.899714660644531250e+01 1.685206055641174316e+00 -8.947521209716796875e+00 1.685206055641174316e+00 6.383787918090820312e+01
6.001085281372070312e+01 -4.901598453521728516e+00 -8.709176063537597656e+00 -4.901598453521728516e+00 9.017708587646484375e+01 9.443169236183166504e-01 -8.709176063537597656e+00 9.443169236183166504e-01 6.485965728759765625e+01
6.195970153808593750e+01 -5.438949108123779297e+00 -8.536213874816894531e+00 -5.438949108123779297e+00 9.076327514648437500e+01 -8.417583703994750977e-01 -8.536213874816894531e+00 -8.417583703994750977e-01 6.442920684814453125e+01
6.681997680664062500e+01 -4.276545047760009766e+00 -5.831483840942382812e+00 -4.276545047760009766e+00 9.119170379638671875e+01 -7.355322837829589844e+00 -5.831483840942382812e+00 -7.355322837829589844e+00 6.489813995361328125e+01
6.742894744873046875e+01 -4.107759952545166016e+00 -5.481006622314453125e+00 -4.107759952545166016e+00 9.118114471435546875e+01 -8.067442893981933594e+00 -5.481006622314453125e+00 -8.067442893981933594e+00 6.496636962890625000e+01
6.878966522216796875e+01 -3.791069746017456055e+00 -4.250846862792968750e+00 -3.791069746017456055e+00 9.235002899169921875e+01 -1.069173336029052734e+01 -4.250846862792968750e+00 -1.069173336029052734e+01 6.483193969726562500e+01
7.125392150878906250e+01 -2.982433319091796875e+00 -3.176626443862915039e+00 -2.982433319091796875e+00 9.371427154541015625e+01 -1.396579074859619141e+01 -3.176626443862915039e+00 -1.396579074859619141e+01 6.589481353759765625e+01
7.444223022460937500e+01 -3.292635917663574219e+00 -1.007344007492065430e+00 -3.292635917663574219e+00 9.746110534667968750e+01 -1.964873886108398438e+01 -1.007344007492065430e+00 -1.964873886108398438e+01 6.867131042480468750e+01
7.490516662597656250e+01 -3.447750568389892578e+00 -6.777607798576354980e-01 -3.447750568389892578e+00 9.803721618652343750e+01 -2.057427215576171875e+01 -6.777607798576354980e-01 -2.057427215576171875e+01 6.969101715087890625e+01
7.534651947021484375e+01 -3.652186393737792969e+00 -3.965804576873779297e-01 -3.652186393737792969e+00 9.889109802246093750e+01 -2.152387046813964844e+01 -3.965804576873779297e-01 -2.152387046813964844e+01 7.072535705566406250e+01
7.646691131591796875e+01 -4.226957321166992188e+00 6.340368390083312988e-01 -4.226957321166992188e+00 1.011993103027343750e+02 -2.445264816284179688e+01 6.340368390083312988e-01 -2.445264816284179688e+01 7.400302124023437500e+01
7.807910919189453125e+01 -5.037973880767822266e+00 2.699035406112670898e+00 -5.037973880767822266e+00 1.055888900756835938e+02 -3.026166725158691406e+01 2.699035406112670898e+00 -3.026166725158691406e+01 8.417958068847656250e+01
7.820397186279296875e+01 -4.915667057037353516e+00 2.878372430801391602e+00 -4.915667057037353516e+00 1.057046585083007812e+02 -3.084490966796875000e+01 2.878372430801391602e+00 -3.084490966796875000e+01 8.596318054199218750e+01
7.820119476318359375e+01 -4.719155311584472656e+00 3.089513301849365234e+00 -4.719155311584472656e+00 1.059854812622070312e+02 -3.144778251647949219e+01 3.089513301849365234e+00 -3.144778251647949219e+01 8.763322448730468750e+01
7.853967285156250000e+01 -4.314280509948730469e+00 3.978230953216552734e+00 -4.314280509948730469e+00 1.069532394409179688e+02 -3.247000122070312500e+01 3.978230953216552734e+00 -3.247000122070312500e+01 9.074872589111328125e+01
7.898588562011718750e+01 -3.918117523193359375e+00 5.125417709350585938e+00 -3.918117523193359375e+00 1.074506454467773438e+02 -3.293540191650390625e+01 5.125417709350585938e+00 -3.293540191650390625e+01 9.346524047851562500e+01
7.910060882568359375e+01 -2.234587669372558594e+00 6.522367477416992188e+00 -2.234587669372558594e+00 1.072562713623046875e+02 -3.332825088500976562e+01 6.522367477416992188e+00 -3.332825088500976562e+01 9.768218994140625000e+01
7.952570343017578125e+01 -1.549755930900573730e+00 7.669876575469970703e+00 -1.549755930900573730e+00 1.074644393920898438e+02 -3.265265274047851562e+01 7.669876575469970703e+00 -3.265265274047851562e+01 9.856435394287109375e+01
7.936340332031250000e+01 1.612086296081542969e+00 1.057745456695556641e+01 1.612086296081542969e+00 1.058764724731445312e+02 -2.972524070739746094e+01 1.057745456695556641e+01 -2.972524070739746094e+01 9.769869995117187500e+01
7.963586425781250000e+01 3.782948255538940430e+00 1.302808475494384766e+01 3.782948255538940430e+00 1.033941650390625000e+02 -2.479748535156250000e+01 1.302808475494384766e+01 -2.479748535156250000e+01 9.197498321533203125e+01
8.064035797119140625e+01 4.480309009552001953e+00 1.308503723144531250e+01 4.480309009552001953e+00 1.017887039184570312e+02 -2.262223434448242188e+01 1.308503723144531250e+01 -2.262223434448242188e+01 8.971607971191406250e+01
8.054673767089843750e+01 5.292897701263427734e+00 1.273175907135009766e+01 5.292897701263427734e+00 1.002690582275390625e+02 -1.796532249450683594e+01 1.273175907135009766e+01 -1.796532249450683594e+01 8.475479125976562500e+01
8.022351837158203125e+01 5.949327945709228516e+00 4.167002677917480469e+00 5.949327945709228516e+00 9.737656402587890625e+01 -8.363681793212890625e+00 4.167002677917480469e+00 -8.363681793212890625e+00 7.947819519042968750e+01
8.029129791259765625e+01 6.030836105346679688e+00 3.067288637161254883e+00 6.030836105346679688e+00 9.704784393310546875e+01 -7.613985538482666016e+00 3.067288637161254883e+00 -7.613985538482666016e+00 7.958322143554687500e+01
8.040299224853515625e+01 6.080062389373779297e+00 9.767622351646423340e-01 6.080062389373779297e+00 9.695775604248046875e+01 -6.235023021697998047e+00 9.767622351646423340e-01 -6.235023021697998047e+00 8.008724212646484375e+01
8.047035217285156250e+01 5.936957836151123047e+00 -5.324909836053848267e-02 5.936957836151123047e+00 9.690151214599609375e+01 -5.634706974029541016e+00 -5.324909836053848267e-02 -5.634706974029541016e+00 8.048332214355468750e+01
8.148729705810546875e+01 5.836433887481689453e+00 -3.589310407638549805e+00 5.836433887481689453e+00 9.631332397460937500e+01 -3.541935682296752930e+00 -3.589310407638549805e+00 -3.541935682296752930e+00 8.191958618164062500e+01
8.208484649658203125e+01 5.961140155792236328e+00 -4.746951580047607422e+00 5.961140155792236328e+00 9.583803558349609375e+01 -2.902172803878784180e+00 -4.746951580047607422e+00 -2.902172803878784180e+00 8.261039733886718750e+01
8.572290039062500000e+01 6.812298297882080078e+00 -1.011125659942626953e+01 6.812298297882080078e+00 9.316766357421875000e+01 2.299493104219436646e-01 -1.011125659942626953e+01 2.299493104219436646e-01 8.661036682128906250e+01
9.165416717529296875e+01 8.448588371276855469e+00 -1.504233551025390625e+01 8.448588371276855469e+00 8.850054931640625000e+01 4.792851448059082031e+00 -1.504233551025390625e+01 4.792851448059082031e+00 9.021636962890625000e+01
9.283409881591796875e+01 8.899094581604003906e+00 -1.580411624908447266e+01 8.899094581604003906e+00 8.741931152343750000e+01 5.592466831207275391e+00 -1.580411624908447266e+01 5.592466831207275391e+00 9.033387756347656250e+01
9.322962951660156250e+01 8.322732925415039062e+00 -1.588286209106445312e+01 8.322732925415039062e+00 8.746200561523437500e+01 6.800611495971679688e+00 -1.588286209106445312e+01 6.800611495971679688e+00 9.037635803222656250e+01
9.393073272705078125e+01 9.109849929809570312e+00 -1.605304336547851562e+01 9.109849929809570312e+00 8.546143341064453125e+01 8.718945503234863281e+00 -1.605304336547851562e+01 8.718945503234863281e+00 9.012137603759765625e+01
9.183330535888671875e+01 1.054417705535888672e+01 -1.313346195220947266e+01 1.054417705535888672e+01 8.103524017333984375e+01 1.306464672088623047e+01 -1.313346195220947266e+01 1.306464672088623047e+01 8.292391967773437500e+01
9.118665313720703125e+01 1.069315624237060547e+01 -1.263520526885986328e+01 1.069315624237060547e+01 8.073631286621093750e+01 1.338709926605224609e+01 -1.263520526885986328e+01 1.338709926605224609e+01 8.195117187500000000e+01
8.721098327636718750e+01 9.448289871215820312e+00 -9.066659927368164062e+00 9.448289871215820312e+00 8.121959686279296875e+01 1.445699977874755859e+01 -9.066659927368164062e+00 1.445699977874755859e+01 7.717016601562500000e+01
8.562174224853515625e+01 8.830058097839355469e+00 -7.526985645294189453e+00 8.830058097839355469e+00 8.202684020996093750e+01 1.442371463775634766e+01 -7.526985645294189453e+00 1.442371463775634766e+01 7.549697875976562500e+01
7.524932098388671875e+01 4.816168785095214844e+00 2.694037437438964844e+00 4.816168785095214844e+00 8.723700714111328125e+01 8.523311614990234375e+00 2.694037437438964844e+00 8.523311614990234375e+00 7.461756134033203125e+01
7.142940521240234375e+01 3.909251213073730469e+00 6.342367172241210938e+00 3.909251213073730469e+00 8.692961883544921875e+01 1.626255750656127930e+00 6.342367172241210938e+00 1.626255750656127930e+00 7.798226928710937500e+01
7.054766082763671875e+01 3.857154130935668945e+00 6.990681171417236328e+00 3.857154130935668945e+00 8.600250244140625000e+01 -7.491980195045471191e-01 6.990681171417236328e+00 -7.491980195045471191e-01 7.978143310546875000e+01
6.985081481933593750e+01 4.281158447265625000e+00 6.717262268066406250e+00 4.281158447265625000e+00 8.349440765380859375e+01 -4.585820198059082031e+00 6.717262268066406250e+00 -4.585820198059082031e+00 8.320950317382812500e+01
6.991224670410156250e+01 4.268471717834472656e+00 6.431033611297607422e+00 4.268471717834472656e+00 8.291796112060546875e+01 -5.518926143646240234e+00 6.431033611297607422e+00 -5.518926143646240234e+00 8.419361877441406250e+01
6.987941741943359375e+01 4.258289337158203125e+00 6.078155994415283203e+00 4.258289337158203125e+00 8.220730590820312500e+01 -6.355646610260009766e+00 6.078155994415283203e+00 -6.355646610260009766e+00 8.521150207519531250e+01
7.415143585205078125e+01 3.650270938873291016e+00 -3.255311012268066406e+00 3.650270938873291016e+00 8.285449218750000000e+01 -1.036075210571289062e+01 -3.255311012268066406e+00 -1.036075210571289062e+01 9.631359100341796875e+01
7.404762268066406250e+01 3.880087852478027344e+00 -3.519942522048950195e+00 3.880087852478027344e+00 8.321778869628906250e+01 -1.020551967620849609e+01 -3.519942522048950195e+00 -1.020551967620849609e+01 9.619973754882812500e+01
7.161498260498046875e+01 7.678913593292236328e+00 -6.489677429199218750e+00 7.678913593292236328e+00 8.582691192626953125e+01 -8.487973213195800781e+00 -6.489677429199218750e+00 -8.487973213195800781e+00 9.334811401367187500e+01