-2.013306640625000000e+04
-2.012871679687500000e+04
-2.012751757812500000e+04
-2.012443750000000000e+04
-2.012134960937500000e+04
-2.012132617187500000e+04
-2.012216601562500000e+04
-2.012210742187500000e+04
-2.012191406250000000e+04
-2.012103320312500000e+04
-2.012069335937500000e+04
-2.012052929687500000e+04
-2.011969921875000000e+04
-2.011905664062500000e+04
-2.011883593750000000e+04
-2.011874023437500000e+04
-2.012106835937500000e+04
-2.012141210937500000e+04
-2.012275195312500000e+04
-2.012320312500000000e+04
-2.012313671875000000e+04
-2.012295898437500000e+04
-2.012251953125000000e+04
-2.012214843750000000e+04
-2.012195312500000000e+04
-2.012175976562500000e+04
-2.012157226562500000e+04
-2.012139257812500000e+04
-2.012099218750000000e+04
-2.012208593750000000e+04
-2.012279296875000000e+04
-2.012295703125000000e+04
-2.012184375000000000e+04
-2.012175000000000000e+04
-2.012173437500000000e+04
-2.012147851562500000e+04
-2.012138281250000000e+04
-2.012127539062500000e+04
-2.012103906250000000e+04
-2.012082226562500000e+04
-2.012074023437500000e+04
-2.012045312500000000e+04
-2.011982617187500000e+04
-2.011921093750000000e+04
-2.011844335937500000e+04
-2.011830468750000000e+04
-2.011805664062500000e+04
-2.011778710937500000e+04
-2.011767382812500000e+04
-2.011767187500000000e+04
-2.011794335937500000e+04
-2.011817187500000000e+04
-2.011879296875000000e+04
-2.012080468750000000e+04
-2.012106640625000000e+04
-2.012104687500000000e+04
-2.012071289062500000e+04
-2.012056250000000000e+04
-2.012064062500000000e+04
-2.012067382812500000e+04
-2.012047851562500000e+04
-2.012041992187500000e+04
-2.012028710937500000e+04
-2.012007812500000000e+04
-2.011981054687500000e+04
-2.011976562500000000e+04
-2.011978515625000000e+04
-2.012004492187500000e+04
-2.012057812500000000e+04
-2.012075195312500000e+04
-2.012043359375000000e+04
-2.011975781250000000e+04
-2.011960156250000000e+04
-2.011888281250000000e+04
-2.012001562500000000e+04
-2.012055664062500000e+04
-2.012327148437500000e+04
-2.012342187500000000e+04
-2.012065429687500000e+04
-2.012055078125000000e+04
-2.012046679687500000e+04
-2.012097851562500000e+04
-2.012109765625000000e+04
-2.012250781250000000e+04
-2.012284765625000000e+04
-2.012318164062500000e+04
-2.012311523437500000e+04
-2.012284570312500000e+04
-2.012121093750000000e+04
-2.012102539062500000e+04
-2.012046875000000000e+04
-2.011982812500000000e+04
-2.011930859375000000e+04
-2.011928515625000000e+04
-2.011927929687500000e+04
-2.011936914062500000e+04
-2.012005859375000000e+04
-2.012018945312500000e+04
-2.012032226562500000e+04
-2.012060156250000000e+04
-2.012087695312500000e+04
-2.012137890625000000e+04
-2.012160156250000000e+04
-2.012220507812500000e+04
-2.012278320312500000e+04
-2.012297460937500000e+04
-2.012342773437500000e+04
-2.012343164062500000e+04
-2.012331835937500000e+04
-2.012301953125000000e+04
-2.012284179687500000e+04
-2.012219921875000000e+04
-2.012195507812500000e+04
-2.012072070312500000e+04
-2.011957031250000000e+04
-2.011949609375000000e+04
-2.011944921875000000e+04
-2.011941796875000000e+04
-2.011972656250000000e+04
-2.011975195312500000e+04
-2.011975195312500000e+04
-2.011970507812500000e+04
-2.011946093750000000e+04
-2.011955468750000000e+04
-2.011962890625000000e+04
-2.011981054687500000e+04
-2.011985937500000000e+04
-2.011990625000000000e+04
-2.011982617187500000e+04
-2.011976953125000000e+04
-2.011926757812500000e+04
-2.011925000000000000e+04
-2.011925195312500000e+04
-2.011938476562500000e+04
-2.011950195312500000e+04
-2.012019921875000000e+04
-2.012069335937500000e+04
-2.012129492187500000e+04
-2.012135351562500000e+04
-2.012137695312500000e+04
-2.012115039062500000e+04
-2.012042578125000000e+04
-2.012037695312500000e+04
-2.012033203125000000e+04
-2.012021093750000000e+04
-2.012018945312500000e+04
-2.012033007812500000e+04
-2.012033789062500000e+04
-2.012028710937500000e+04
-2.012016210937500000e+04
-2.011967968750000000e+04
-2.011937109375000000e+04
-2.011891406250000000e+04
-2.011879687500000000e+04
-2.011854296875000000e+04
-2.011850390625000000e+04
-2.011849023437500000e+04
-2.011860742187500000e+04
-2.011875781250000000e+04
-2.011896484375000000e+04
-2.011923828125000000e+04
-2.011956054687500000e+04
-2.012058984375000000e+04
-2.012171289062500000e+04
-2.012178906250000000e+04
-2.012123828125000000e+04
-2.012070703125000000e+04
-2.011967382812500000e+04
-2.011922070312500000e+04
-2.011890820312500000e+04
-2.011919531250000000e+04
-2.011924609375000000e+04
-2.011943164062500000e+04
-2.011968554687500000e+04
-2.012005664062500000e+04
-2.012020703125000000e+04
-2.012221484375000000e+04
-2.012243164062500000e+04
-2.012284765625000000e+04
-2.012424023437500000e+04
-2.012403906250000000e+04
-2.012368945312500000e+04
-2.012213476562500000e+04
-2.012203125000000000e+04
-2.012206835937500000e+04
-2.012221484375000000e+04
-2.012210156250000000e+04
-2.012099609375000000e+04
-2.012097851562500000e+04
-2.012087890625000000e+04
-2.012111132812500000e+04
-2.012121875000000000e+04
-2.012126367187500000e+04
-2.012126757812500000e+04
-2.012101562500000000e+04
-2.012086914062500000e+04
-2.012057421875000000e+04
-2.011954492187500000e+04
-2.011934179687500000e+04
-2.011899414062500000e+04
-2.011871093750000000e+04
-2.011872265625000000e+04
-2.011866796875000000e+04
-2.011843359375000000e+04
-2.011836132812500000e+04
-2.011770703125000000e+04
-2.011708593750000000e+04
-2.011799218750000000e+04
-2.011874218750000000e+04
-2.011895507812500000e+04
-2.012157421875000000e+04
-2.012205273437500000e+04
-2.012201171875000000e+04
-2.012196679687500000e+04
-2.012116796875000000e+04
-2.012100781250000000e+04
-2.012100585937500000e+04
-2.012105859375000000e+04
-2.012155664062500000e+04
-2.012193554687500000e+04
-2.012238671875000000e+04
-2.012250781250000000e+04
-2.012263281250000000e+04
-2.012321484375000000e+04
-2.012359570312500000e+04
-2.012365625000000000e+04
-2.012358007812500000e+04
-2.012279492187500000e+04
-2.012238867187500000e+04
-2.012212304687500000e+04
-2.012111328125000000e+04
-2.012071484375000000e+04
-2.012049804687500000e+04
-2.011928125000000000e+04
-2.011907812500000000e+04
-2.011897656250000000e+04
-2.011832617187500000e+04
-2.011829296875000000e+04
-2.011836328125000000e+04
-2.011866210937500000e+04
-2.011875976562500000e+04
-2.011910937500000000e+04
-2.011951562500000000e+04
-2.011993945312500000e+04
-2.012134179687500000e+04
-2.012082226562500000e+04
-2.012080078125000000e+04
-2.012114453125000000e+04
-2.012120312500000000e+04
-2.012126562500000000e+04
-2.012132617187500000e+04
-2.012163085937500000e+04
-2.012166406250000000e+04
-2.012164843750000000e+04
-2.012162890625000000e+04
-2.012153515625000000e+04
-2.012125000000000000e+04
-2.012104882812500000e+04
-2.012100390625000000e+04
-2.012096289062500000e+04
-2.012075585937500000e+04
-2.012076171875000000e+04
-2.012077148437500000e+04
-2.012079296875000000e+04
-2.012074609375000000e+04
-2.012057421875000000e+04
-2.012050390625000000e+04
-2.011915820312500000e+04
-2.011898046875000000e+04
-2.011908398437500000e+04
-2.011920703125000000e+04
-2.011980664062500000e+04
-2.012028710937500000e+04
-2.012107421875000000e+04
-2.012136328125000000e+04
-2.012148632812500000e+04
-2.012147851562500000e+04
-2.012134179687500000e+04
-2.012094921875000000e+04
-2.012024609375000000e+04
-2.012019140625000000e+04
-2.011944140625000000e+04
-2.011938867187500000e+04
-2.011923632812500000e+04
-2.011892968750000000e+04
-2.011853320312500000e+04
-2.011842773437500000e+04
-2.011839648437500000e+04
-2.011839062500000000e+04
-2.011843164062500000e+04
-2.011854882812500000e+04
-2.011856445312500000e+04
-2.011861718750000000e+04
-2.011870117187500000e+04
-2.011870703125000000e+04
-2.011872265625000000e+04
-2.011874414062500000e+04
-2.011852343750000000e+04
-2.011838867187500000e+04
-2.011831835937500000e+04
-2.011810546875000000e+04
-2.011811523437500000e+04
-2.011894921875000000e+04
-2.011909375000000000e+04
-2.011993945312500000e+04
-2.012123242187500000e+04
-2.012138281250000000e+04
-2.012144921875000000e+04
-2.012166210937500000e+04
-2.012177148437500000e+04
-2.012181250000000000e+04
-2.012175976562500000e+04
-2.012066015625000000e+04
-2.011962500000000000e+04
-2.011806640625000000e+04
-2.011788671875000000e+04
-2.011697070312500000e+04
-2.011691015625000000e+04
-2.011686718750000000e+04
-2.011716210937500000e+04
-2.011831835937500000e+04
-2.011900585937500000e+04
-2.011942968750000000e+04
-2.011942187500000000e+04
-2.011775000000000000e+04
-2.011760351562500000e+04
-2.011732421875000000e+04
-2.011718945312500000e+04
-2.011693359375000000e+04
-2.011612304687500000e+04
-2.011612500000000000e+04
-2.011631445312500000e+04
-2.011675000000000000e+04
-2.011716210937500000e+04
-2.011754882812500000e+04
-2.011759375000000000e+04
-2.011757226562500000e+04
-2.011711132812500000e+04
-2.011701757812500000e+04
-2.011659375000000000e+04
-2.011712695312500000e+04
-2.011795898437500000e+04
-2.011807617187500000e+04
-2.011819726562500000e+04
-2.011810351562500000e+04
-2.011746289062500000e+04
-2.011698242187500000e+04
-2.011692382812500000e+04
-2.011682226562500000e+04
-2.011681835937500000e+04
-2.011681250000000000e+04
-2.011698828125000000e+04
-2.011709570312500000e+04
-2.011712109375000000e+04
-2.011721289062500000e+04
-2.011713281250000000e+04
-2.011703320312500000e+04
-2.011701367187500000e+04
-2.011695312500000000e+04
-2.011691796875000000e+04
-2.011690625000000000e+04
-2.011799609375000000e+04
-2.011815429687500000e+04
-2.011834960937500000e+04
-2.011812304687500000e+04
-2.011789648437500000e+04
-2.011794531250000000e+04
-2.011815820312500000e+04
-2.011831445312500000e+04
-2.011826757812500000e+04
-2.011814843750000000e+04
-2.011770312500000000e+04
-2.011705664062500000e+04
-2.011677734375000000e+04
-2.011668750000000000e+04
-2.011645507812500000e+04
-2.011638867187500000e+04
-2.011621484375000000e+04
-2.011849218750000000e+04
-2.011901953125000000e+04
-2.011926562500000000e+04
-2.011943945312500000e+04
-2.011953906250000000e+04
-2.011945507812500000e+04
-2.011926757812500000e+04
-2.011918554687500000e+04
-2.011908593750000000e+04
-2.011897656250000000e+04
-2.011873046875000000e+04
-2.011705273437500000e+04
-2.011708007812500000e+04
-2.011709375000000000e+04
-2.011712695312500000e+04
-2.011709765625000000e+04
-2.011698828125000000e+04
-2.011693164062500000e+04
-2.011704687500000000e+04
-2.011762500000000000e+04
-2.011797265625000000e+04
-2.011797265625000000e+04
-2.011796679687500000e+04
-2.011795703125000000e+04
-2.011795312500000000e+04
-2.011794140625000000e+04
-2.011794335937500000e+04
-2.011810937500000000e+04
-2.011816015625000000e+04
-2.011821679687500000e+04
-2.011835156250000000e+04
-2.011876757812500000e+04
-2.011894531250000000e+04
-2.011927929687500000e+04
-2.011918945312500000e+04
-2.011824609375000000e+04
-2.011792187500000000e+04
-2.011776562500000000e+04
-2.011719726562500000e+04
-2.011668164062500000e+04
-2.011662890625000000e+04
-2.011664453125000000e+04
-2.011672460937500000e+04
-2.011673632812500000e+04
-2.011675195312500000e+04
-2.011695117187500000e+04
-2.011698046875000000e+04
-2.011715429687500000e+04
-2.011717578125000000e+04
-2.011691796875000000e+04
-2.011616406250000000e+04
-2.011590820312500000e+04
-2.011579296875000000e+04
-2.011614453125000000e+04
-2.011649218750000000e+04
-2.011654296875000000e+04
-2.011648437500000000e+04
-2.011631054687500000e+04
-2.011535937500000000e+04
-2.011587890625000000e+04
-2.011654296875000000e+04
-2.011800195312500000e+04
-2.011806640625000000e+04
-2.011797656250000000e+04
-2.011794140625000000e+04
-2.011765429687500000e+04
-2.011755859375000000e+04
-2.011742773437500000e+04
-2.011741601562500000e+04
-2.011762890625000000e+04
-2.011777539062500000e+04
-2.011807617187500000e+04
-2.011823437500000000e+04
-2.011827148437500000e+04
-2.011791796875000000e+04
-2.011786718750000000e+04
-2.011767382812500000e+04
-2.011761914062500000e+04
-2.011756445312500000e+04
-2.011726171875000000e+04
-2.011712109375000000e+04
-2.011702929687500000e+04
-2.011700976562500000e+04
-2.011700390625000000e+04
-2.011700195312500000e+04
-2.011698828125000000e+04
-2.011697460937500000e+04
-2.011696679687500000e+04
-2.011712109375000000e+04
-2.011718750000000000e+04
-2.011718359375000000e+04
-2.011717578125000000e+04
-2.011715625000000000e+04
-2.011713867187500000e+04
-2.011676757812500000e+04
-2.011644140625000000e+04
-2.011623242187500000e+04
-2.011709765625000000e+04
-2.011770312500000000e+04
-2.011778710937500000e+04
-2.011779687500000000e+04
-2.011772656250000000e+04
-2.011748828125000000e+04
-2.011743359375000000e+04
-2.011727343750000000e+04
-2.011698632812500000e+04
-2.011689453125000000e+04
-2.011680664062500000e+04
-2.011676367187500000e+04
-2.011662304687500000e+04
-2.011658007812500000e+04
-2.011656445312500000e+04
-2.011660937500000000e+04
-2.011671484375000000e+04
-2.011696093750000000e+04
-2.011728320312500000e+04
-2.011730664062500000e+04
-2.011657421875000000e+04
-2.011564843750000000e+04
-2.011525781250000000e+04
-2.011535546875000000e+04
-2.011542578125000000e+04
-2.011623632812500000e+04
-2.011663085937500000e+04
-2.011779296875000000e+04
-2.011853515625000000e+04
-2.011947656250000000e+04
-2.012009179687500000e+04
-2.012061914062500000e+04
-2.012116210937500000e+04
-2.012150976562500000e+04
-2.012116406250000000e+04
-2.011929492187500000e+04
-2.011890039062500000e+04
-2.011811328125000000e+04
-2.011793164062500000e+04
-2.011742382812500000e+04
-2.011727539062500000e+04
-2.011659960937500000e+04
-2.011683593750000000e+04
-2.011700000000000000e+04
-2.011738476562500000e+04
-2.011757812500000000e+04
-2.011766406250000000e+04
-2.011799414062500000e+04
-2.011803320312500000e+04
-2.011807031250000000e+04
-2.011794921875000000e+04
-2.011742578125000000e+04
-2.011737500000000000e+04
-2.011724023437500000e+04
-2.011738476562500000e+04
-2.011770312500000000e+04
-2.011777734375000000e+04
-2.011784960937500000e+04
-2.011803320312500000e+04
-2.011766796875000000e+04
-2.011754882812500000e+04
-2.011670312500000000e+04
-2.011656445312500000e+04
-2.011643554687500000e+04
-2.011636328125000000e+04
-2.011666015625000000e+04
-2.011720703125000000e+04
-2.011729492187500000e+04
-2.011746093750000000e+04
-2.011825390625000000e+04
-2.011832421875000000e+04
-2.011851171875000000e+04
-2.011843164062500000e+04
-2.011801757812500000e+04
-2.011625585937500000e+04
-2.011619531250000000e+04
-2.011609765625000000e+04
-2.011547460937500000e+04
-2.011475195312500000e+04
-2.011461523437500000e+04
-2.011456054687500000e+04
-2.011448437500000000e+04
-2.011446289062500000e+04
-2.011463867187500000e+04
-2.011462695312500000e+04
-2.011429882812500000e+04
-2.011381835937500000e+04
-2.011346679687500000e+04
-2.011333789062500000e+04
-2.011322851562500000e+04
-2.011334570312500000e+04
-2.011341992187500000e+04
-2.011349609375000000e+04
-2.011403710937500000e+04
-2.011410351562500000e+04
-2.011425000000000000e+04
-2.011467968750000000e+04
-2.011489453125000000e+04
-2.011491015625000000e+04
-2.011451757812500000e+04
-2.011516601562500000e+04
-2.011583789062500000e+04
-2.011608593750000000e+04
-2.011639453125000000e+04
-2.011659570312500000e+04
-2.011663281250000000e+04
-2.011659375000000000e+04
-2.011634960937500000e+04
-2.011631640625000000e+04
-2.011630664062500000e+04
-2.011630078125000000e+04
-2.011629492187500000e+04
-2.011629296875000000e+04
-2.011627734375000000e+04
-2.011626757812500000e+04
-2.011586132812500000e+04
-2.011583789062500000e+04
-2.011583789062500000e+04
-2.011584765625000000e+04
-2.011587500000000000e+04
-2.011602929687500000e+04
-2.011604492187500000e+04
-2.011607617187500000e+04
-2.011609570312500000e+04
-2.011609765625000000e+04
-2.011608593750000000e+04
-2.011609765625000000e+04
-2.011613281250000000e+04
-2.011617382812500000e+04
-2.011618750000000000e+04
-2.011620312500000000e+04
-2.011623437500000000e+04
-2.011616406250000000e+04
-2.011711914062500000e+04
-2.011777539062500000e+04
-2.011808203125000000e+04
-2.011832617187500000e+04
-2.011816406250000000e+04
-2.011704296875000000e+04
-2.011677343750000000e+04
-2.011635351562500000e+04
-2.011530273437500000e+04
-2.011516796875000000e+04
-2.011511718750000000e+04
-2.011509570312500000e+04
-2.011505664062500000e+04
-2.011509570312500000e+04
-2.011515234375000000e+04
-2.011537109375000000e+04
-2.011547656250000000e+04
-2.011550195312500000e+04
-2.011549218750000000e+04
-2.011537695312500000e+04
-2.011535937500000000e+04
-2.011533398437500000e+04
-2.011507031250000000e+04
-2.011501367187500000e+04
-2.011507812500000000e+04
-2.011518164062500000e+04
-2.011576757812500000e+04
-2.011696093750000000e+04
-2.011710937500000000e+04
-2.011723242187500000e+04
-2.011625000000000000e+04
-2.011569335937500000e+04
-2.011464843750000000e+04
-2.011350781250000000e+04
-2.011323437500000000e+04
-2.011325781250000000e+04
-2.011329296875000000e+04
-2.011339257812500000e+04
-2.011386914062500000e+04
-2.011464453125000000e+04
-2.011527734375000000e+04
-2.011553125000000000e+04
-2.011565429687500000e+04
-2.011577343750000000e+04
-2.011601367187500000e+04
-2.011682617187500000e+04
-2.011701757812500000e+04
-2.011667968750000000e+04
-2.011604492187500000e+04
-2.011503710937500000e+04
-2.011434960937500000e+04
-2.011418945312500000e+04
-2.011361523437500000e+04
-2.011311914062500000e+04
-2.011305468750000000e+04
-2.011289648437500000e+04
-2.011310156250000000e+04
-2.011316406250000000e+04
-2.011339453125000000e+04
-2.011406445312500000e+04
-2.011448632812500000e+04
-2.011475195312500000e+04
-2.011499804687500000e+04
-2.011508789062500000e+04
-2.011518750000000000e+04
-2.011637109375000000e+04
-2.011681445312500000e+04
-2.011710351562500000e+04
-2.011723828125000000e+04
-2.011780078125000000e+04
-2.011828320312500000e+04
-2.011826367187500000e+04
-2.011809179687500000e+04
-2.011761328125000000e+04
-2.011734570312500000e+04
-2.011688671875000000e+04
-2.011689062500000000e+04
-2.011693164062500000e+04
-2.011694921875000000e+04
-2.011703515625000000e+04
-2.011703710937500000e+04
-2.011703125000000000e+04
-2.011694921875000000e+04
-2.011663867187500000e+04
-2.011647656250000000e+04
-2.011618945312500000e+04
-2.011597070312500000e+04
-2.011561914062500000e+04
-2.011523046875000000e+04
-2.011396679687500000e+04
-2.011367773437500000e+04
-2.011403710937500000e+04
-2.011415234375000000e+04
-2.011420312500000000e+04
-2.011415625000000000e+04
-2.011412890625000000e+04
-2.011384375000000000e+04
-2.011367773437500000e+04
-2.011356445312500000e+04
-2.011350390625000000e+04
-2.011303320312500000e+04
-2.011298828125000000e+04
-2.011298046875000000e+04
-2.011307421875000000e+04
-2.011324414062500000e+04
-2.011341210937500000e+04
-2.011370898437500000e+04
-2.011393750000000000e+04
-2.011443945312500000e+04
-2.011480859375000000e+04
-2.011514843750000000e+04
-2.011565429687500000e+04
-2.011540234375000000e+04
-2.011518359375000000e+04
-2.011436132812500000e+04
-2.011389062500000000e+04
-2.011291015625000000e+04
-2.011276367187500000e+04
-2.011248046875000000e+04
-2.011188671875000000e+04
-2.011158789062500000e+04
-2.011145117187500000e+04
-2.011145507812500000e+04
-2.011150390625000000e+04
-2.011179687500000000e+04
-2.011191992187500000e+04
-2.011229296875000000e+04
-2.011262890625000000e+04
-2.011310546875000000e+04
-2.011364453125000000e+04
-2.011440039062500000e+04
-2.011477929687500000e+04
-2.011492773437500000e+04
-2.011404882812500000e+04
-2.011411523437500000e+04
-2.011501562500000000e+04
-2.011648242187500000e+04
-2.011667773437500000e+04
-2.011512890625000000e+04
-2.011490429687500000e+04
-2.011467773437500000e+04
-2.011362304687500000e+04
-2.011344335937500000e+04
-2.011288671875000000e+04
-2.011266210937500000e+04
-2.011274023437500000e+04
-2.011280859375000000e+04
-2.011298242187500000e+04
-2.011304882812500000e+04
-2.011311328125000000e+04
-2.011314257812500000e+04
-2.011335351562500000e+04
-2.011298046875000000e+04
-2.011239062500000000e+04
-2.011225781250000000e+04
-2.011212695312500000e+04
-2.011105468750000000e+04
-2.011093164062500000e+04
-2.011110937500000000e+04
-2.011149218750000000e+04
-2.011219921875000000e+04
-2.011228125000000000e+04
-2.011235742187500000e+04
-2.011254882812500000e+04
-2.011103710937500000e+04
-2.011059960937500000e+04
-2.011038671875000000e+04
-2.011027343750000000e+04
-2.011022656250000000e+04
-2.011011523437500000e+04
-2.011018750000000000e+04
-2.011044140625000000e+04
-2.011056054687500000e+04
-2.011065039062500000e+04
-2.011090039062500000e+04
-2.011108593750000000e+04
-2.011115429687500000e+04
-2.011116796875000000e+04
-2.011071289062500000e+04
-2.011094921875000000e+04
-2.011100195312500000e+04
-2.011105664062500000e+04
-2.011138085937500000e+04
-2.011138476562500000e+04
-2.011141796875000000e+04
-2.011255468750000000e+04
-2.011261328125000000e+04
-2.011267382812500000e+04
-2.011320117187500000e+04
-2.011345703125000000e+04
-2.011353125000000000e+04
-2.011378710937500000e+04
-2.011378515625000000e+04
-2.011368945312500000e+04
-2.011315429687500000e+04
-2.011286523437500000e+04
-2.011313085937500000e+04
-2.011367968750000000e+04
-2.011384179687500000e+04
-2.011388867187500000e+04
-2.011401367187500000e+04
-2.011405468750000000e+04
-2.011439257812500000e+04
-2.011445312500000000e+04
-2.011447851562500000e+04
-2.011454101562500000e+04
-2.011421679687500000e+04
-2.011375195312500000e+04
-2.011324804687500000e+04
-2.011273437500000000e+04
-2.011260937500000000e+04
-2.011248828125000000e+04
-2.011187304687500000e+04
-2.011166210937500000e+04
-2.011164257812500000e+04
-2.011165234375000000e+04
-2.011218945312500000e+04
-2.011225781250000000e+04
-2.011233398437500000e+04
-2.011236523437500000e+04
-2.011237695312500000e+04
-2.011238867187500000e+04
-2.011239648437500000e+04
-2.011239453125000000e+04
-2.011239062500000000e+04
-2.011237695312500000e+04
-2.011236132812500000e+04
-2.011233593750000000e+04
-2.011080468750000000e+04
-2.010991992187500000e+04
-2.010983789062500000e+04
-2.010977343750000000e+04
-2.010967773437500000e+04
-2.010974023437500000e+04
-2.011109765625000000e+04
-2.011183789062500000e+04
-2.011289257812500000e+04
-2.011299414062500000e+04
-2.011369531250000000e+04
-2.011384179687500000e+04
-2.011463476562500000e+04
-2.011489648437500000e+04
-2.011493750000000000e+04
-2.011490820312500000e+04
-2.011480273437500000e+04
-2.011473046875000000e+04
-2.011444921875000000e+04
-2.011352929687500000e+04
-2.011251562500000000e+04
-2.011210937500000000e+04
-2.011107812500000000e+04
-2.011101562500000000e+04
-2.011124218750000000e+04
-2.011198632812500000e+04
-2.011231250000000000e+04
-2.011301367187500000e+04
-2.011339843750000000e+04
-2.011438476562500000e+04
-2.011451953125000000e+04
-2.011385351562500000e+04
-2.011377148437500000e+04
-2.011354101562500000e+04
-2.011350390625000000e+04
-2.011386328125000000e+04
-2.011408398437500000e+04
-2.011391796875000000e+04
-2.011382617187500000e+04
-2.011359375000000000e+04
-2.011224804687500000e+04
-2.011139648437500000e+04
-2.011131640625000000e+04
-2.011135937500000000e+04
-2.011135937500000000e+04
-2.011124023437500000e+04
-2.011112890625000000e+04
-2.011065234375000000e+04
-2.011027929687500000e+04
-2.011153125000000000e+04
-2.011249218750000000e+04
-2.011054101562500000e+04
-2.011037890625000000e+04
-2.011022656250000000e+04
-2.010932031250000000e+04
-2.010922851562500000e+04
-2.010930664062500000e+04
-2.010936718750000000e+04
-2.011211914062500000e+04
-2.011225195312500000e+04
-2.011249609375000000e+04
-2.011281250000000000e+04
-2.011282031250000000e+04
-2.011270898437500000e+04
-2.011224609375000000e+04
-2.011199804687500000e+04
-2.011173828125000000e+04
-2.011146679687500000e+04
-2.011082617187500000e+04
-2.011042578125000000e+04
-2.011019726562500000e+04
-2.011098632812500000e+04
-2.011112695312500000e+04
-2.011188671875000000e+04
-2.011323828125000000e+04
-2.011336718750000000e+04
-2.011360546875000000e+04
-2.011389648437500000e+04
-2.011405468750000000e+04
-2.011398632812500000e+04
-2.011281445312500000e+04
-2.011164453125000000e+04
-2.011077539062500000e+04
-2.011054687500000000e+04
-2.011043945312500000e+04
-2.011032031250000000e+04
-2.011035351562500000e+04
-2.011016992187500000e+04
-2.011005273437500000e+04
-2.011000390625000000e+04
-2.010996093750000000e+04
-2.010984960937500000e+04
-2.010978320312500000e+04
-2.010967382812500000e+04
-2.010965039062500000e+04
-2.010965429687500000e+04
-2.010965039062500000e+04
-2.010963867187500000e+04
-2.010964062500000000e+04
-2.010964062500000000e+04
-2.010964648437500000e+04
-2.010967578125000000e+04
-2.010973828125000000e+04
-2.010991992187500000e+04
-2.011031250000000000e+04
-2.011110742187500000e+04
-2.011169531250000000e+04
-2.011196093750000000e+04
-2.011210546875000000e+04
-2.011216992187500000e+04
-2.011222460937500000e+04
-2.011266015625000000e+04
-2.011267382812500000e+04
-2.011263671875000000e+04
-2.011245117187500000e+04
-2.011221093750000000e+04
-2.011191406250000000e+04
-2.011167773437500000e+04
-2.011151953125000000e+04
-2.011144726562500000e+04
-2.011124023437500000e+04
-2.011118359375000000e+04
-2.011092187500000000e+04
-2.011092187500000000e+04
-2.011095507812500000e+04
-2.011108398437500000e+04
-2.011117968750000000e+04
-2.011119531250000000e+04
-2.011113867187500000e+04
-2.011092968750000000e+04
-2.011081250000000000e+04
-2.011082031250000000e+04
-2.011083007812500000e+04
-2.011062109375000000e+04
-2.011054492187500000e+04
-2.010940429687500000e+04
-2.010876562500000000e+04
-2.010806054687500000e+04
-2.010775195312500000e+04
-2.010741406250000000e+04
-2.010732421875000000e+04
-2.010729492187500000e+04
-2.010729687500000000e+04
-2.010730859375000000e+04
-2.010744140625000000e+04
-2.010750000000000000e+04
-2.010787890625000000e+04
-2.010870507812500000e+04
-2.010898437500000000e+04
-2.010937500000000000e+04
-2.010992968750000000e+04
-2.010992578125000000e+04
-2.010981445312500000e+04
-2.010979296875000000e+04
-2.010972265625000000e+04
-2.010982812500000000e+04
-2.010987695312500000e+04
-2.011034960937500000e+04
-2.011059570312500000e+04
-2.011066796875000000e+04
-2.011066406250000000e+04
-2.011065039062500000e+04
-2.011052929687500000e+04
-2.011046289062500000e+04
