5.137916946411132812e+01 -8.147242665290832520e-01 1.745768189430236816e+00 -8.147242665290832520e-01 1.775544357299804688e+01 5.275455474853515625e+00 1.745768189430236816e+00 5.275455474853515625e+00 4.592428970336914062e+01
5.568464660644531250e+01 3.221955060958862305e+00 -2.238933801651000977e+00 3.221955060958862305e+00 3.060334396362304688e+01 5.330469131469726562e+00 -2.238933801651000977e+00 5.330469131469726562e+00 5.969697189331054688e+01
5.699459075927734375e+01 3.910568952560424805e+00 -3.911762952804565430e+00 3.910568952560424805e+00 3.366915130615234375e+01 5.094962596893310547e+00 -3.911762952804565430e+00 5.094962596893310547e+00 6.270944595336914062e+01
6.022997665405273438e+01 5.606991291046142578e+00 -8.695662498474121094e+00 5.606991291046142578e+00 4.103739547729492188e+01 4.386514186859130859e+00 -8.695662498474121094e+00 4.386514186859130859e+00 6.887946319580078125e+01
6.222125625610351562e+01 7.616144180297851562e+00 -1.436996650695800781e+01 7.616144180297851562e+00 4.723508834838867188e+01 3.476458072662353516e+00 -1.436996650695800781e+01 3.476458072662353516e+00 7.103501892089843750e+01
3.742465972900390625e+01 1.117264842987060547e+01 -1.533354473114013672e+01 1.117264842987060547e+01 3.372184371948242188e+01 2.842203617095947266e+00 -1.533354473114013672e+01 2.842203617095947266e+00 3.861772918701171875e+01
2.679598045349121094e+01 1.040620899200439453e+01 -1.109132671356201172e+01 1.040620899200439453e+01 2.401625442504882812e+01 3.183159351348876953e+00 -1.109132671356201172e+01 3.183159351348876953e+00 2.786575889587402344e+01
1.989388084411621094e+01 9.202152252197265625e+00 -5.996706008911132812e+00 9.202152252197265625e+00 1.667909431457519531e+01 3.477064371109008789e+00 -5.996706008911132812e+00 3.477064371109008789e+00 2.160343551635742188e+01
1.867871475219726562e+01 8.895631790161132812e+00 -4.391201972961425781e+00 8.895631790161132812e+00 1.519435501098632812e+01 3.538698196411132812e+00 -4.391201972961425781e+00 3.538698196411132812e+00 2.071915626525878906e+01
1.671579360961914062e+01 7.859438896179199219e+00 5.846709609031677246e-01 7.859438896179199219e+00 1.231479835510253906e+01 3.826973676681518555e+00 5.846709609031677246e-01 3.826973676681518555e+00 1.942739105224609375e+01
1.660013198852539062e+01 7.516718864440917969e+00 2.240633249282836914e+00 7.516718864440917969e+00 1.192701053619384766e+01 3.955311059951782227e+00 2.240633249282836914e+00 3.955311059951782227e+00 1.936855888366699219e+01
1.660629653930664062e+01 7.324961662292480469e+00 3.054060459136962891e+00 7.324961662292480469e+00 1.181456661224365234e+01 4.017017364501953125e+00 3.054060459136962891e+00 4.017017364501953125e+00 1.934461975097656250e+01
1.762036514282226562e+01 6.150115489959716797e+00 7.506081104278564453e+00 6.150115489959716797e+00 1.217367362976074219e+01 4.552871704101562500e+00 7.506081104278564453e+00 4.552871704101562500e+00 1.907373809814453125e+01
2.121150207519531250e+01 4.371185302734375000e+00 1.138728618621826172e+01 4.371185302734375000e+00 1.423456382751464844e+01 5.014785766601562500e+00 1.138728618621826172e+01 5.014785766601562500e+00 1.854869270324707031e+01
2.382403373718261719e+01 3.488811016082763672e+00 1.211824893951416016e+01 3.488811016082763672e+00 1.566354084014892578e+01 4.969524860382080078e+00 1.211824893951416016e+01 4.969524860382080078e+00 1.877212142944335938e+01
2.957517623901367188e+01 2.015267133712768555e+00 1.133408164978027344e+01 2.015267133712768555e+00 1.882969093322753906e+01 4.017721652984619141e+00 1.133408164978027344e+01 4.017721652984619141e+00 2.146655845642089844e+01
2.888477706909179688e+01 7.000929832458496094e+00 1.105286312103271484e+01 7.000929832458496094e+00 2.468193244934082031e+01 3.255523681640625000e+00 1.105286312103271484e+01 3.255523681640625000e+00 3.472847747802734375e+01
2.829224205017089844e+01 7.912615776062011719e+00 1.136468219757080078e+01 7.912615776062011719e+00 2.583913421630859375e+01 3.479257583618164062e+00 1.136468219757080078e+01 3.479257583618164062e+00 3.581778717041015625e+01
2.716205406188964844e+01 1.143911361694335938e+01 1.155451965332031250e+01 1.143911361694335938e+01 3.348843765258789062e+01 4.680634021759033203e+00 1.155451965332031250e+01 4.680634021759033203e+00 3.796882629394531250e+01
2.823276519775390625e+01 1.383315753936767578e+01 1.012872505187988281e+01 1.383315753936767578e+01 4.241672134399414062e+01 5.256880283355712891e+00 1.012872505187988281e+01 5.256880283355712891e+00 3.874347305297851562e+01
2.908191108703613281e+01 1.452762413024902344e+01 9.430378913879394531e+00 1.452762413024902344e+01 4.576441955566406250e+01 5.225559711456298828e+00 9.430378913879394531e+00 5.225559711456298828e+00 3.938156127929687500e+01
3.014887237548828125e+01 1.517762660980224609e+01 8.651546478271484375e+00 1.517762660980224609e+01 4.910093307495117188e+01 5.042146682739257812e+00 8.651546478271484375e+00 5.042146682739257812e+00 4.023630905151367188e+01
3.215756225585937500e+01 1.598388290405273438e+01 7.486765384674072266e+00 1.598388290405273438e+01 5.382447433471679688e+01 4.420624732971191406e+00 7.486765384674072266e+00 4.420624732971191406e+00 4.191650390625000000e+01
3.375648880004882812e+01 1.637945938110351562e+01 6.700822353363037109e+00 1.637945938110351562e+01 5.661268234252929688e+01 3.820333003997802734e+00 6.700822353363037109e+00 3.820333003997802734e+00 4.330561065673828125e+01
3.460813522338867188e+01 1.650659561157226562e+01 6.305568218231201172e+00 1.650659561157226562e+01 5.786581420898437500e+01 3.464246273040771484e+00 6.305568218231201172e+00 3.464246273040771484e+00 4.400053024291992188e+01
3.547410202026367188e+01 1.659477996826171875e+01 5.917453289031982422e+00 1.659477996826171875e+01 5.898365020751953125e+01 3.115589380264282227e+00 5.917453289031982422e+00 3.115589380264282227e+00 4.470346069335937500e+01
3.632740020751953125e+01 1.663891220092773438e+01 5.567143440246582031e+00 1.663891220092773438e+01 5.995101547241210938e+01 2.717608690261840820e+00 5.567143440246582031e+00 2.717608690261840820e+00 4.536961746215820312e+01
3.717641830444335938e+01 1.663458061218261719e+01 5.216372489929199219e+00 1.663458061218261719e+01 6.083334350585937500e+01 2.314020395278930664e+00 5.216372489929199219e+00 2.314020395278930664e+00 4.603948211669921875e+01
4.349151229858398438e+01 1.336815834045410156e+01 3.371518135070800781e+00 1.336815834045410156e+01 6.031330490112304688e+01 -1.586469113826751709e-01 3.371518135070800781e+00 -1.586469113826751709e-01 4.756126022338867188e+01
4.435916137695312500e+01 9.520743370056152344e+00 3.179918050765991211e+00 9.520743370056152344e+00 5.312158584594726562e+01 2.021410465240478516e-01 3.179918050765991211e+00 2.021410465240478516e-01 4.339583206176757812e+01
4.384402084350585938e+01 7.306842803955078125e+00 2.824682950973510742e+00 7.306842803955078125e+00 4.746852874755859375e+01 6.046910881996154785e-01 2.824682950973510742e+00 6.046910881996154785e-01 3.980298233032226562e+01
4.353917312622070312e+01 6.638988494873046875e+00 2.569282531738281250e+00 6.638988494873046875e+00 4.544826126098632812e+01 6.434060335159301758e-01 2.569282531738281250e+00 6.434060335159301758e-01 3.848529815673828125e+01
3.968130111694335938e+01 3.748810052871704102e+00 -1.881120681762695312e+00 3.748810052871704102e+00 2.599604988098144531e+01 -6.940577983856201172e+00 -1.881120681762695312e+00 -6.940577983856201172e+00 2.933562469482421875e+01
3.511800003051757812e+01 9.703567624092102051e-01 -2.330596208572387695e+00 9.703567624092102051e-01 1.195094871520996094e+01 -1.042799758911132812e+01 -2.330596208572387695e+00 -1.042799758911132812e+01 2.313248634338378906e+01
3.464117050170898438e+01 7.160314917564392090e-01 -2.278393507003784180e+00 7.160314917564392090e-01 1.099177837371826172e+01 -1.052902889251708984e+01 -2.278393507003784180e+00 -1.052902889251708984e+01 2.269813346862792969e+01
3.130817604064941406e+01 -1.055487275123596191e+00 -2.017424821853637695e+00 -1.055487275123596191e+00 5.393206119537353516e+00 -1.015943717956542969e+01 -2.017424821853637695e+00 -1.015943717956542969e+01 2.089184951782226562e+01
3.014059448242187500e+01 -1.441828608512878418e+00 -1.951824665069580078e+00 -1.441828608512878418e+00 3.927937269210815430e+00 -9.774628639221191406e+00 -1.951824665069580078e+00 -9.774628639221191406e+00 2.062960243225097656e+01
2.908074378967285156e+01 -1.766618609428405762e+00 -1.987249135971069336e+00 -1.766618609428405762e+00 2.627429723739624023e+00 -9.220848083496093750e+00 -1.987249135971069336e+00 -9.220848083496093750e+00 2.052808952331542969e+01
2.683556365966796875e+01 -2.219974040985107422e+00 -2.216376781463623047e+00 -2.219974040985107422e+00 1.138470619916915894e-01 -7.648150920867919922e+00 -2.216376781463623047e+00 -7.648150920867919922e+00 2.079465866088867188e+01
2.534856605529785156e+01 -2.307355165481567383e+00 -2.522537708282470703e+00 -2.307355165481567383e+00 -1.384318351745605469e+00 -6.040247917175292969e+00 -2.522537708282470703e+00 -6.040247917175292969e+00 2.143254661560058594e+01
2.488002204895019531e+01 -2.318691730499267578e+00 -2.644004106521606445e+00 -2.318691730499267578e+00 -1.816840410232543945e+00 -5.447654247283935547e+00 -2.644004106521606445e+00 -5.447654247283935547e+00 2.165782356262207031e+01
2.368066406250000000e+01 -2.284583091735839844e+00 -3.070648193359375000e+00 -2.284583091735839844e+00 -2.766759395599365234e+00 -3.451994419097900391e+00 -3.070648193359375000e+00 -3.451994419097900391e+00 2.242174530029296875e+01
2.232989501953125000e+01 -2.165165662765502930e+00 -3.958695650100708008e+00 -2.165165662765502930e+00 -3.203606843948364258e+00 2.243826091289520264e-01 -3.958695650100708008e+00 2.243826091289520264e-01 2.346320343017578125e+01
2.213595581054687500e+01 -2.103132247924804688e+00 -4.656615734100341797e+00 -2.103132247924804688e+00 -2.268944025039672852e+00 3.157689571380615234e+00 -4.656615734100341797e+00 3.157689571380615234e+00 2.362865447998046875e+01
2.257456970214843750e+01 -2.086257219314575195e+00 -5.129642963409423828e+00 -2.086257219314575195e+00 2.686338722705841064e-01 6.256309032440185547e+00 -5.129642963409423828e+00 6.256309032440185547e+00 2.242469215393066406e+01
2.276390457153320312e+01 -2.060060501098632812e+00 -5.117582798004150391e+00 -2.060060501098632812e+00 9.578911662101745605e-01 6.755774497985839844e+00 -5.117582798004150391e+00 6.755774497985839844e+00 2.204463768005371094e+01
2.313130187988281250e+01 -1.991023659706115723e+00 -5.022093296051025391e+00 -1.991023659706115723e+00 2.386392116546630859e+00 7.597714424133300781e+00 -5.022093296051025391e+00 7.597714424133300781e+00 2.108103752136230469e+01
2.346678924560546875e+01 -1.738262176513671875e+00 -4.611321449279785156e+00 -1.738262176513671875e+00 4.626532554626464844e+00 8.511109352111816406e+00 -4.611321449279785156e+00 8.511109352111816406e+00 1.937392616271972656e+01
2.346666526794433594e+01 -1.316050887107849121e+00 -3.857065200805664062e+00 -1.316050887107849121e+00 6.693113327026367188e+00 9.053326606750488281e+00 -3.857065200805664062e+00 9.053326606750488281e+00 1.739573287963867188e+01
2.337766456604003906e+01 -1.120679855346679688e+00 -3.538331747055053711e+00 -1.120679855346679688e+00 7.320291996002197266e+00 9.123001098632812500e+00 -3.538331747055053711e+00 9.123001098632812500e+00 1.674824142456054688e+01
2.238283348083496094e+01 -1.584301292896270752e-01 -1.709893107414245605e+00 -1.584301292896270752e-01 9.652500152587890625e+00 8.950199127197265625e+00 -1.709893107414245605e+00 8.950199127197265625e+00 1.380070304870605469e+01
2.180500221252441406e+01 2.603209316730499268e-01 -9.421196579933166504e-01 2.603209316730499268e-01 1.008389186859130859e+01 8.634639739990234375e+00 -9.421196579933166504e-01 8.634639739990234375e+00 1.289885997772216797e+01
2.071643447875976562e+01 8.687228560447692871e-01 6.042239665985107422e-01 8.687228560447692871e-01 1.007072830200195312e+01 7.608669281005859375e+00 6.042239665985107422e-01 7.608669281005859375e+00 1.152758884429931641e+01
2.008173942565917969e+01 4.376476109027862549e-01 3.501861333847045898e+00 4.376476109027862549e-01 6.759134292602539062e+00 1.617982983589172363e+00 3.501861333847045898e+00 1.617982983589172363e+00 1.236365413665771484e+01
2.126522254943847656e+01 -2.374985367059707642e-01 3.732463121414184570e+00 -2.374985367059707642e-01 6.686965942382812500e+00 -1.040969252586364746e+00 3.732463121414184570e+00 -1.040969252586364746e+00 1.445056247711181641e+01
2.310354804992675781e+01 -7.910947799682617188e-01 3.473036766052246094e+00 -7.910947799682617188e-01 7.771797180175781250e+00 -3.689470529556274414e+00 3.473036766052246094e+00 -3.689470529556274414e+00 1.741285514831542969e+01
2.765763473510742188e+01 -1.187093615531921387e+00 2.161955356597900391e+00 -1.187093615531921387e+00 1.104592227935791016e+01 -7.363690853118896484e+00 2.161955356597900391e+00 -7.363690853118896484e+00 2.330722427368164062e+01
3.454493713378906250e+01 -9.686216115951538086e-01 -1.039005145430564880e-01 -9.686216115951538086e-01 1.438558387756347656e+01 -8.866821289062500000e+00 -1.039005145430564880e-01 -8.866821289062500000e+00 2.905006027221679688e+01
3.823649215698242188e+01 -1.280162215232849121e+00 -1.027729034423828125e+00 -1.280162215232849121e+00 1.549023246765136719e+01 -8.329461097717285156e+00 -1.027729034423828125e+00 -8.329461097717285156e+00 3.099344062805175781e+01
4.170200347900390625e+01 -1.868250846862792969e+00 -1.688555240631103516e+00 -1.868250846862792969e+00 1.740806388854980469e+01 -7.036121368408203125e+00 -1.688555240631103516e+00 -7.036121368408203125e+00 3.306699752807617188e+01
4.341920471191406250e+01 -1.879712104797363281e+00 -1.904288411140441895e+00 -1.879712104797363281e+00 2.049438476562500000e+01 -5.589762210845947266e+00 -1.904288411140441895e+00 -5.589762210845947266e+00 3.596582794189453125e+01
4.354643249511718750e+01 -1.750760555267333984e+00 -1.885457754135131836e+00 -1.750760555267333984e+00 2.115778160095214844e+01 -5.355283260345458984e+00 -1.885457754135131836e+00 -5.355283260345458984e+00 3.659703445434570312e+01
4.361753845214843750e+01 -1.409274220466613770e+00 -1.816527128219604492e+00 -1.409274220466613770e+00 2.260260009765625000e+01 -4.883705139160156250e+00 -1.816527128219604492e+00 -4.883705139160156250e+00 3.792376708984375000e+01
4.329333877563476562e+01 -6.142913103103637695e-01 -1.518639087677001953e+00 -6.142913103103637695e-01 2.500240135192871094e+01 -4.270042419433593750e+00 -1.518639087677001953e+00 -4.270042419433593750e+00 3.995877456665039062e+01
4.180215454101562500e+01 1.105669498443603516e+00 -7.581530809402465820e-01 1.105669498443603516e+00 2.928886032104492188e+01 -3.424288988113403320e+00 -7.581530809402465820e-01 -3.424288988113403320e+00 4.311754989624023438e+01
4.104401016235351562e+01 1.820612668991088867e+00 -3.245148360729217529e-01 1.820612668991088867e+00 3.103145408630371094e+01 -3.166997909545898438e+00 -3.245148360729217529e-01 -3.166997909545898438e+00 4.405547332763671875e+01
3.993525314331054688e+01 2.770884037017822266e+00 3.196271061897277832e-01 2.770884037017822266e+00 3.361181640625000000e+01 -2.936805486679077148e+00 3.196271061897277832e-01 -2.936805486679077148e+00 4.500816345214843750e+01
3.846747589111328125e+01 3.667114257812500000e+00 1.347298502922058105e+00 3.667114257812500000e+00 3.750616455078125000e+01 -2.813236951828002930e+00 1.347298502922058105e+00 -2.813236951828002930e+00 4.505988693237304688e+01
3.847320175170898438e+01 2.910068750381469727e+00 2.496068954467773438e+00 2.910068750381469727e+00 4.233709335327148438e+01 -2.957503318786621094e+00 2.496068954467773438e+00 -2.957503318786621094e+00 4.329024887084960938e+01
4.278609085083007812e+01 -1.645267724990844727e+00 4.075369358062744141e+00 -1.645267724990844727e+00 4.928313064575195312e+01 -2.701384305953979492e+00 4.075369358062744141e+00 -2.701384305953979492e+00 4.181356048583984375e+01
4.535381317138671875e+01 -3.954128980636596680e+00 4.883448600769042969e+00 -3.954128980636596680e+00 5.294797515869140625e+01 -2.335870265960693359e+00 4.883448600769042969e+00 -2.335870265960693359e+00 4.251773452758789062e+01
4.817704010009765625e+01 -6.730071067810058594e+00 6.094610691070556641e+00 -6.730071067810058594e+00 5.846762084960937500e+01 -1.686743617057800293e+00 6.094610691070556641e+00 -1.686743617057800293e+00 4.412536239624023438e+01
4.863338851928710938e+01 -7.242005825042724609e+00 6.354292869567871094e+00 -7.242005825042724609e+00 5.964285278320312500e+01 -1.525189995765686035e+00 6.354292869567871094e+00 -1.525189995765686035e+00 4.446765899658203125e+01
5.020740509033203125e+01 -9.493606567382812500e+00 7.705007076263427734e+00 -9.493606567382812500e+00 6.554957580566406250e+01 -5.103848576545715332e-01 7.705007076263427734e+00 -5.103848576545715332e-01 4.558899688720703125e+01
4.490520477294921875e+01 -1.219363403320312500e+01 9.841926574707031250e+00 -1.219363403320312500e+01 6.757996368408203125e+01 2.896917343139648438e+00 9.841926574707031250e+00 2.896917343139648438e+00 3.382576370239257812e+01
4.342611312866210938e+01 -1.227930355072021484e+01 9.634141921997070312e+00 -1.227930355072021484e+01 6.476884460449218750e+01 3.063039064407348633e+00 9.634141921997070312e+00 3.063039064407348633e+00 3.088684844970703125e+01
3.406570053100585938e+01 -1.332102775573730469e+01 5.177050590515136719e+00 -1.332102775573730469e+01 4.079932403564453125e+01 2.012537956237792969e+00 5.177050590515136719e+00 2.012537956237792969e+00 1.563909912109375000e+01
3.270269393920898438e+01 -1.352039337158203125e+01 4.023303031921386719e+00 -1.352039337158203125e+01 3.707773971557617188e+01 1.609628319740295410e+00 4.023303031921386719e+00 1.609628319740295410e+00 1.421117496490478516e+01
2.217134284973144531e+01 -1.219329929351806641e+01 -7.351161956787109375e+00 -1.219329929351806641e+01 1.764751243591308594e+01 -3.669113516807556152e-01 -7.351161956787109375e+00 -3.669113516807556152e-01 1.671278572082519531e+01
2.170084953308105469e+01 -1.193276500701904297e+01 -7.441700458526611328e+00 -1.193276500701904297e+01 1.724344444274902344e+01 -3.869389295578002930e-01 -7.441700458526611328e+00 -3.869389295578002930e-01 1.690848922729492188e+01
2.122977066040039062e+01 -1.166543865203857422e+01 -7.482395172119140625e+00 -1.166543865203857422e+01 1.685034370422363281e+01 -4.058751165866851807e-01 -7.482395172119140625e+00 -4.058751165866851807e-01 1.700753974914550781e+01
1.485456848144531250e+01 -7.537931919097900391e+00 -4.828175544738769531e+00 -7.537931919097900391e+00 1.047517585754394531e+01 -1.833929300308227539e+00 -4.828175544738769531e+00 -1.833929300308227539e+00 1.446823692321777344e+01
1.432421016693115234e+01 -7.224281311035156250e+00 -4.566962242126464844e+00 -7.224281311035156250e+00 9.783617973327636719e+00 -2.075631856918334961e+00 -4.566962242126464844e+00 -2.075631856918334961e+00 1.409516048431396484e+01
8.436749458312988281e+00 -3.966112852096557617e+00 -2.069537639617919922e+00 -3.966112852096557617e+00 1.416742444038391113e+00 -5.296341419219970703e+00 -2.069537639617919922e+00 -5.296341419219970703e+00 1.122230815887451172e+01
6.928824424743652344e+00 -3.194467544555664062e+00 -1.314770340919494629e+00 -3.194467544555664062e+00 -6.111395359039306641e-01 -6.273025989532470703e+00 -1.314770340919494629e+00 -6.273025989532470703e+00 1.096746158599853516e+01
5.791273593902587891e+00 -1.720276713371276855e+00 1.197846531867980957e+00 -1.720276713371276855e+00 -2.002221345901489258e+00 -8.285072326660156250e+00 1.197846531867980957e+00 -8.285072326660156250e+00 1.176243114471435547e+01
6.168458938598632812e+00 -1.616682648658752441e+00 1.522857189178466797e+00 -1.616682648658752441e+00 -1.611297845840454102e+00 -8.343398094177246094e+00 1.522857189178466797e+00 -8.343398094177246094e+00 1.214818954467773438e+01
7.506093978881835938e+00 -1.469497323036193848e+00 2.098707914352416992e+00 -1.469497323036193848e+00 -2.826249003410339355e-01 -8.220335006713867188e+00 2.098707914352416992e+00 -8.220335006713867188e+00 1.354371356964111328e+01
1.373228549957275391e+01 -1.582040667533874512e+00 3.002447843551635742e+00 -1.582040667533874512e+00 6.114309787750244141e+00 -6.800918579101562500e+00 3.002447843551635742e+00 -6.800918579101562500e+00 2.081543159484863281e+01
1.434477996826171875e+01 -1.626666188240051270e+00 3.017579555511474609e+00 -1.626666188240051270e+00 6.837475299835205078e+00 -6.695582389831542969e+00 3.017579555511474609e+00 -6.695582389831542969e+00 2.160086822509765625e+01
1.626033973693847656e+01 -1.734289050102233887e+00 3.047199964523315430e+00 -1.734289050102233887e+00 9.155282020568847656e+00 -6.403399467468261719e+00 3.047199964523315430e+00 -6.403399467468261719e+00 2.400089454650878906e+01
1.851736450195312500e+01 -1.907219290733337402e+00 3.089217185974121094e+00 -1.907219290733337402e+00 1.220765590667724609e+01 -6.214617729187011719e+00 3.089217185974121094e+00 -6.214617729187011719e+00 2.686431121826171875e+01
2.080084800720214844e+01 -2.041461944580078125e+00 3.371478557586669922e+00 -2.041461944580078125e+00 1.621749114990234375e+01 -6.219045162200927734e+00 3.371478557586669922e+00 -6.219045162200927734e+00 2.961171531677246094e+01
2.105426216125488281e+01 -2.003887414932250977e+00 3.452349424362182617e+00 -2.003887414932250977e+00 1.681186485290527344e+01 -6.251115798950195312e+00 3.452349424362182617e+00 -6.251115798950195312e+00 2.985218620300292969e+01
2.127896308898925781e+01 -1.970817446708679199e+00 3.560932159423828125e+00 -1.970817446708679199e+00 1.734691810607910156e+01 -6.300269603729248047e+00 3.560932159423828125e+00 -6.300269603729248047e+00 3.004360961914062500e+01
2.172876548767089844e+01 -1.730189442634582520e+00 3.901536226272583008e+00 -1.730189442634582520e+00 1.896278381347656250e+01 -6.398684978485107422e+00 3.901536226272583008e+00 -6.398684978485107422e+00 3.031252479553222656e+01
2.190917778015136719e+01 -5.600846409797668457e-01 4.953241348266601562e+00 -5.600846409797668457e-01 2.188679122924804688e+01 -6.481841564178466797e+00 4.953241348266601562e+00 -6.481841564178466797e+00 2.957647132873535156e+01
2.189038276672363281e+01 -2.865299582481384277e-01 5.073692798614501953e+00 -2.865299582481384277e-01 2.225841903686523438e+01 -6.430914402008056641e+00 5.073692798614501953e+00 -6.430914402008056641e+00 2.938147926330566406e+01
2.186793899536132812e+01 -4.866224713623523712e-03 5.193398475646972656e+00 -4.866224713623523712e-03 2.264643669128417969e+01 -6.387586116790771484e+00 5.193398475646972656e+00 -6.387586116790771484e+00 2.919116020202636719e+01
2.169350433349609375e+01 7.046934366226196289e-01 5.415346622467041016e+00 7.046934366226196289e-01 2.329559326171875000e+01 -6.253606796264648438e+00 5.415346622467041016e+00 -6.253606796264648438e+00 2.875368690490722656e+01
2.153651809692382812e+01 1.532683610916137695e+00 5.596159934997558594e+00 1.532683610916137695e+00 2.402874374389648438e+01 -6.084959030151367188e+00 5.596159934997558594e+00 -6.084959030151367188e+00 2.830278396606445312e+01
2.135194015502929688e+01 3.529925584793090820e+00 5.745670318603515625e+00 3.529925584793090820e+00 2.570018196105957031e+01 -5.719432353973388672e+00 5.745670318603515625e+00 -5.719432353973388672e+00 2.746653366088867188e+01
2.124937248229980469e+01 4.734560966491699219e+00 5.719841480255126953e+00 4.734560966491699219e+00 2.659314346313476562e+01 -5.546555519104003906e+00 5.719841480255126953e+00 -5.546555519104003906e+00 2.712841606140136719e+01
2.078651046752929688e+01 8.934158325195312500e+00 5.449923992156982422e+00 8.934158325195312500e+00 2.911893081665039062e+01 -5.125237941741943359e+00 5.449923992156982422e+00 -5.125237941741943359e+00 2.575490379333496094e+01
1.987660026550292969e+01 1.336998748779296875e+01 5.289745807647705078e+00 1.336998748779296875e+01 3.113069915771484375e+01 -4.795418262481689453e+00 5.289745807647705078e+00 -4.795418262481689453e+00 2.403734207153320312e+01
1.945536994934082031e+01 1.465929031372070312e+01 5.360766887664794922e+00 1.465929031372070312e+01 3.172764778137207031e+01 -4.670980930328369141e+00 5.360766887664794922e+00 -4.670980930328369141e+00 2.342817306518554688e+01
1.828894615173339844e+01 1.703660202026367188e+01 5.903300762176513672e+00 1.703660202026367188e+01 3.276736068725585938e+01 -4.150497913360595703e+00 5.903300762176513672e+00 -4.150497913360595703e+00 2.170032310485839844e+01
1.768965721130371094e+01 1.724185180664062500e+01 8.585921287536621094e+00 1.724185180664062500e+01 3.578078460693359375e+01 -6.539447903633117676e-01 8.585921287536621094e+00 -6.539447903633117676e-01 1.954836082458496094e+01
1.790797615051269531e+01 1.694688987731933594e+01 8.828327178955078125e+00 1.694688987731933594e+01 3.618875885009765625e+01 -1.630978733301162720e-01 8.828327178955078125e+00 -1.630978733301162720e-01 1.946111679077148438e+01
1.855728530883789062e+01 1.624370002746582031e+01 9.308937072753906250e+00 1.624370002746582031e+01 3.710971450805664062e+01 9.336934685707092285e-01 9.308937072753906250e+00 9.336934685707092285e-01 1.946531677246093750e+01
1.894774246215820312e+01 1.580327701568603516e+01 9.513032913208007812e+00 1.580327701568603516e+01 3.761325073242187500e+01 1.529086709022521973e+00 9.513032913208007812e+00 1.529086709022521973e+00 1.946464729309082031e+01
2.048703002929687500e+01 1.429608631134033203e+01 1.001198863983154297e+01 1.429608631134033203e+01 3.913412857055664062e+01 3.429008960723876953e+00 1.001198863983154297e+01 3.429008960723876953e+00 1.974378967285156250e+01
2.110357856750488281e+01 1.370841693878173828e+01 1.009979152679443359e+01 1.370841693878173828e+01 3.968266296386718750e+01 4.053974151611328125e+00 1.009979152679443359e+01 4.053974151611328125e+00 1.988291740417480469e+01
2.422303199768066406e+01 1.031326389312744141e+01 1.007461261749267578e+01 1.031326389312744141e+01 4.161368179321289062e+01 6.877821922302246094e+00 1.007461261749267578e+01 6.877821922302246094e+00 2.051531982421875000e+01
2.761779975891113281e+01 5.063537120819091797e+00 8.482211112976074219e+00 5.063537120819091797e+00 4.110870361328125000e+01 8.407883644104003906e+00 8.482211112976074219e+00 8.407883644104003906e+00 2.058968162536621094e+01
2.791714477539062500e+01 4.353573799133300781e+00 8.169267654418945312e+00 4.353573799133300781e+00 4.066687393188476562e+01 8.298949241638183594e+00 8.169267654418945312e+00 8.298949241638183594e+00 2.054086494445800781e+01
2.808424186706542969e+01 3.685870409011840820e+00 7.850261688232421875e+00 3.685870409011840820e+00 4.008593750000000000e+01 8.093263626098632812e+00 7.850261688232421875e+00 8.093263626098632812e+00 2.040314292907714844e+01
2.841850471496582031e+01 1.925151228904724121e+00 6.734297275543212891e+00 1.925151228904724121e+00 3.796662521362304688e+01 7.076681613922119141e+00 6.734297275543212891e+00 7.076681613922119141e+00 2.001647758483886719e+01
2.759243774414062500e+01 -6.230322718620300293e-01 3.240411043167114258e+00 -6.230322718620300293e-01 2.933364486694335938e+01 1.176560521125793457e+00 3.240411043167114258e+00 1.176560521125793457e+00 2.011256790161132812e+01
2.742920494079589844e+01 -6.894751191139221191e-01 2.873401403427124023e+00 -6.894751191139221191e-01 2.829865455627441406e+01 4.136921465396881104e-01 2.873401403427124023e+00 4.136921465396881104e-01 2.028230667114257812e+01
2.679952239990234375e+01 -5.255520343780517578e-01 1.086516022682189941e+00 -5.255520343780517578e-01 2.373222541809082031e+01 -3.156969070434570312e+00 1.086516022682189941e+00 -3.156969070434570312e+00 2.167301750183105469e+01
2.671578216552734375e+01 -3.376769423484802246e-01 4.491355419158935547e-01 -3.376769423484802246e-01 2.227128410339355469e+01 -4.401384830474853516e+00 4.491355419158935547e-01 -4.401384830474853516e+00 2.232346153259277344e+01
2.710936546325683594e+01 3.928076326847076416e-01 -1.807023882865905762e+00 3.928076326847076416e-01 1.864513969421386719e+01 -8.171585083007812500e+00 -1.807023882865905762e+00 -8.171585083007812500e+00 2.348508644104003906e+01
2.739593696594238281e+01 2.632443904876708984e-01 -2.441877603530883789e+00 2.632443904876708984e-01 1.941112327575683594e+01 -7.715935230255126953e+00 -2.441877603530883789e+00 -7.715935230255126953e+00 2.215802383422851562e+01
2.739385414123535156e+01 1.306754648685455322e-01 -2.659135103225708008e+00 1.306754648685455322e-01 1.988318252563476562e+01 -7.185152530670166016e+00 -2.659135103225708008e+00 -7.185152530670166016e+00 2.155264854431152344e+01
2.737909507751464844e+01 -1.542274206876754761e-01 -3.172224044799804688e+00 -1.542274206876754761e-01 2.080011367797851562e+01 -5.598819732666015625e+00 -3.172224044799804688e+00 -5.598819732666015625e+00 2.047922134399414062e+01
2.735177421569824219e+01 -2.477192133665084839e-01 -3.320748329162597656e+00 -2.477192133665084839e-01 2.100468063354492188e+01 -5.101913928985595703e+00 -3.320748329162597656e+00 -5.101913928985595703e+00 2.020223236083984375e+01
2.735882186889648438e+01 -3.143782317638397217e-01 -3.453794479370117188e+00 -3.143782317638397217e-01 2.122792434692382812e+01 -4.598243713378906250e+00 -3.453794479370117188e+00 -4.598243713378906250e+00 1.998316383361816406e+01
2.811368942260742188e+01 1.033925056457519531e+00 -6.051815986633300781e+00 1.033925056457519531e+00 2.576346778869628906e+01 3.504829645156860352e+00 -6.051815986633300781e+00 3.504829645156860352e+00 2.123495292663574219e+01
2.819119453430175781e+01 1.255238652229309082e+00 -6.117080688476562500e+00 1.255238652229309082e+00 2.619125175476074219e+01 3.714402198791503906e+00 -6.117080688476562500e+00 3.714402198791503906e+00 2.147364425659179688e+01
2.848593330383300781e+01 3.907956123352050781e+00 -5.893020629882812500e+00 3.907956123352050781e+00 3.156595230102539062e+01 4.528529644012451172e+00 -5.893020629882812500e+00 4.528529644012451172e+00 2.305960083007812500e+01