-2.969882617187500000e+04
-2.969322265625000000e+04
-2.969155273437500000e+04
-2.968693945312500000e+04
-2.968149218750000000e+04
-2.967413281250000000e+04
-2.967426171875000000e+04
-2.967422265625000000e+04
-2.967411523437500000e+04
-2.967350585937500000e+04
-2.967321679687500000e+04
-2.967305859375000000e+04
-2.967202929687500000e+04
-2.967091601562500000e+04
-2.967064648437500000e+04
-2.967084375000000000e+04
-2.967187109375000000e+04
-2.967188671875000000e+04
-2.967175976562500000e+04
-2.967145507812500000e+04
-2.967132617187500000e+04
-2.967118750000000000e+04
-2.967096484375000000e+04
-2.967080664062500000e+04
-2.967072265625000000e+04
-2.967063476562500000e+04
-2.967054687500000000e+04
-2.967045507812500000e+04
-2.966945117187500000e+04
-2.966881054687500000e+04
-2.966856250000000000e+04
-2.966853515625000000e+04
-2.966747656250000000e+04
-2.966408593750000000e+04
-2.966387890625000000e+04
-2.966275195312500000e+04
-2.966253125000000000e+04
-2.966235546875000000e+04
-2.966208789062500000e+04
-2.966194335937500000e+04
-2.966189843750000000e+04
-2.966178125000000000e+04
-2.966161914062500000e+04
-2.966150585937500000e+04
-2.966137695312500000e+04
-2.966134570312500000e+04
-2.966127929687500000e+04
-2.966116992187500000e+04
-2.966103125000000000e+04
-2.966098437500000000e+04
-2.966067578125000000e+04
-2.966053320312500000e+04
-2.966022265625000000e+04
-2.965921484375000000e+04
-2.965892968750000000e+04
-2.965869921875000000e+04
-2.965837695312500000e+04
-2.965792968750000000e+04
-2.965758007812500000e+04
-2.965714843750000000e+04
-2.965693359375000000e+04
-2.965693359375000000e+04
-2.965697070312500000e+04
-2.965711914062500000e+04
-2.965754882812500000e+04
-2.965776367187500000e+04
-2.965809960937500000e+04
-2.965856445312500000e+04
-2.965872851562500000e+04
-2.965784375000000000e+04
-2.965730664062500000e+04
-2.965660742187500000e+04
-2.965646484375000000e+04
-2.965574414062500000e+04
-2.965350390625000000e+04
-2.965329101562500000e+04
-2.965268554687500000e+04
-2.965260742187500000e+04
-2.964896093750000000e+04
-2.964865039062500000e+04
-2.964833789062500000e+04
-2.964490039062500000e+04
-2.964478320312500000e+04
-2.964497851562500000e+04
-2.964533984375000000e+04
-2.964575000000000000e+04
-2.964560546875000000e+04
-2.964510937500000000e+04
-2.964308593750000000e+04
-2.964297851562500000e+04
-2.964291210937500000e+04
-2.964347070312500000e+04
-2.964523242187500000e+04
-2.964552539062500000e+04
-2.964580078125000000e+04
-2.964640429687500000e+04
-2.964612695312500000e+04
-2.964590429687500000e+04
-2.964565039062500000e+04
-2.964507617187500000e+04
-2.964446093750000000e+04
-2.964336328125000000e+04
-2.964297851562500000e+04
-2.964264648437500000e+04
-2.964316796875000000e+04
-2.964339648437500000e+04
-2.964389257812500000e+04
-2.964381640625000000e+04
-2.964368164062500000e+04
-2.964332812500000000e+04
-2.964311132812500000e+04
-2.964229687500000000e+04
-2.964198046875000000e+04
-2.964018359375000000e+04
-2.963775585937500000e+04
-2.963747460937500000e+04
-2.963721093750000000e+04
-2.963653125000000000e+04
-2.963513085937500000e+04
-2.963498437500000000e+04
-2.963419335937500000e+04
-2.963383984375000000e+04
-2.963210937500000000e+04
-2.963180664062500000e+04
-2.963186718750000000e+04
-2.963226171875000000e+04
-2.963241406250000000e+04
-2.963258984375000000e+04
-2.963576953125000000e+04
-2.963574804687500000e+04
-2.963405273437500000e+04
-2.963384570312500000e+04
-2.963325781250000000e+04
-2.963265429687500000e+04
-2.963243945312500000e+04
-2.963217773437500000e+04
-2.963240234375000000e+04
-2.963317968750000000e+04
-2.963333007812500000e+04
-2.963336914062500000e+04
-2.963185742187500000e+04
-2.962860351562500000e+04
-2.962855273437500000e+04
-2.962852343750000000e+04
-2.962851367187500000e+04
-2.962852929687500000e+04
-2.962825390625000000e+04
-2.962794726562500000e+04
-2.962794921875000000e+04
-2.962797460937500000e+04
-2.962773046875000000e+04
-2.962707812500000000e+04
-2.962640820312500000e+04
-2.962646289062500000e+04
-2.962697851562500000e+04
-2.962718164062500000e+04
-2.962737304687500000e+04
-2.962775000000000000e+04
-2.962778515625000000e+04
-2.962771875000000000e+04
-2.962758984375000000e+04
-2.962743359375000000e+04
-2.962715234375000000e+04
-2.962617968750000000e+04
-2.962550000000000000e+04
-2.962423437500000000e+04
-2.962383984375000000e+04
-2.962357031250000000e+04
-2.962362304687500000e+04
-2.962385351562500000e+04
-2.962467382812500000e+04
-2.962469726562500000e+04
-2.962470703125000000e+04
-2.962464062500000000e+04
-2.962452929687500000e+04
-2.962449414062500000e+04
-2.962470898437500000e+04
-2.962480078125000000e+04
-2.962500000000000000e+04
-2.962587890625000000e+04
-2.962577929687500000e+04
-2.962557421875000000e+04
-2.962570507812500000e+04
-2.962606445312500000e+04
-2.962587695312500000e+04
-2.962271093750000000e+04
-2.962151367187500000e+04
-2.962237695312500000e+04
-2.962269140625000000e+04
-2.962509570312500000e+04
-2.962690039062500000e+04
-2.962611328125000000e+04
-2.962552929687500000e+04
-2.962518750000000000e+04
-2.962432421875000000e+04
-2.962416992187500000e+04
-2.962332031250000000e+04
-2.962201953125000000e+04
-2.962206835937500000e+04
-2.962232812500000000e+04
-2.962389257812500000e+04
-2.962446875000000000e+04
-2.962480468750000000e+04
-2.962523437500000000e+04
-2.962533789062500000e+04
-2.962600390625000000e+04
-2.962519921875000000e+04
-2.962366796875000000e+04
-2.962358203125000000e+04
-2.962361718750000000e+04
-2.962534179687500000e+04
-2.962618750000000000e+04
-2.962638867187500000e+04
-2.962649023437500000e+04
-2.962712304687500000e+04
-2.962716796875000000e+04
-2.962700781250000000e+04
-2.962697656250000000e+04
-2.962652929687500000e+04
-2.962597851562500000e+04
-2.962521093750000000e+04
-2.962500585937500000e+04
-2.962480468750000000e+04
-2.962398632812500000e+04
-2.962387109375000000e+04
-2.962415625000000000e+04
-2.962465625000000000e+04
-2.962602734375000000e+04
-2.962633007812500000e+04
-2.962643945312500000e+04
-2.962489453125000000e+04
-2.962566406250000000e+04
-2.962612109375000000e+04
-2.962781640625000000e+04
-2.962789453125000000e+04
-2.962790625000000000e+04
-2.962764257812500000e+04
-2.962761914062500000e+04
-2.962769335937500000e+04
-2.962775585937500000e+04
-2.962774609375000000e+04
-2.962762890625000000e+04
-2.962735937500000000e+04
-2.962695507812500000e+04
-2.962456835937500000e+04
-2.962376367187500000e+04
-2.962368359375000000e+04
-2.962351757812500000e+04
-2.962359179687500000e+04
-2.962369140625000000e+04
-2.962380664062500000e+04
-2.962510937500000000e+04
-2.962559375000000000e+04
-2.962659375000000000e+04
-2.962684570312500000e+04
-2.962756250000000000e+04
-2.962880273437500000e+04
-2.962944726562500000e+04
-2.962957812500000000e+04
-2.962969335937500000e+04
-2.962988671875000000e+04
-2.962972460937500000e+04
-2.962953906250000000e+04
-2.962915429687500000e+04
-2.962883203125000000e+04
-2.962868359375000000e+04
-2.962864453125000000e+04
-2.962759960937500000e+04
-2.962586328125000000e+04
-2.962575195312500000e+04
-2.962565625000000000e+04
-2.962544921875000000e+04
-2.962539648437500000e+04
-2.962530859375000000e+04
-2.962509570312500000e+04
-2.962448242187500000e+04
-2.962420312500000000e+04
-2.962323437500000000e+04
-2.962166601562500000e+04
-2.962060156250000000e+04
-2.962059179687500000e+04
-2.962056640625000000e+04
-2.962051367187500000e+04
-2.962033203125000000e+04
-2.962005078125000000e+04
-2.962133593750000000e+04
-2.962216796875000000e+04
-2.962247460937500000e+04
-2.962692578125000000e+04
-2.962700195312500000e+04
-2.962712890625000000e+04
-2.962714453125000000e+04
-2.962725585937500000e+04
-2.962667773437500000e+04
-2.962651953125000000e+04
-2.962616406250000000e+04
-2.962577539062500000e+04
-2.962437304687500000e+04
-2.962449609375000000e+04
-2.962455468750000000e+04
-2.962470898437500000e+04
-2.962444921875000000e+04
-2.962343750000000000e+04
-2.962325781250000000e+04
-2.962227929687500000e+04
-2.962185937500000000e+04
-2.962192187500000000e+04
-2.962194531250000000e+04
-2.962200195312500000e+04
-2.962194921875000000e+04
-2.962184375000000000e+04
-2.962123242187500000e+04
-2.961939062500000000e+04
-2.961882812500000000e+04
-2.961862500000000000e+04
-2.961866406250000000e+04
-2.961909179687500000e+04
-2.961913671875000000e+04
-2.961916796875000000e+04
-2.961882812500000000e+04
-2.961772851562500000e+04
-2.961708984375000000e+04
-2.961650000000000000e+04
-2.961630468750000000e+04
-2.961605859375000000e+04
-2.961605859375000000e+04
-2.961609375000000000e+04
-2.961613476562500000e+04
-2.961625976562500000e+04
-2.961796289062500000e+04
-2.961807226562500000e+04
-2.961750000000000000e+04
-2.961622656250000000e+04
-2.961609960937500000e+04
-2.961666406250000000e+04
-2.961686132812500000e+04
-2.961718945312500000e+04
-2.961740820312500000e+04
-2.961741015625000000e+04
-2.961734570312500000e+04
-2.961581054687500000e+04
-2.961429296875000000e+04
-2.961408007812500000e+04
-2.961401171875000000e+04
-2.961554101562500000e+04
-2.961661132812500000e+04
-2.961688476562500000e+04
-2.961704296875000000e+04
-2.961763671875000000e+04
-2.961773437500000000e+04
-2.961789062500000000e+04
-2.961774218750000000e+04
-2.961684179687500000e+04
-2.961662890625000000e+04
-2.961480078125000000e+04
-2.961586132812500000e+04
-2.961703906250000000e+04
-2.961717773437500000e+04
-2.961753710937500000e+04
-2.961774023437500000e+04
-2.961805078125000000e+04
-2.961744140625000000e+04
-2.961729101562500000e+04
-2.961655859375000000e+04
-2.961675000000000000e+04
-2.961777343750000000e+04
-2.961786523437500000e+04
-2.961817578125000000e+04
-2.961840625000000000e+04
-2.961841796875000000e+04
-2.961833007812500000e+04
-2.961878515625000000e+04
-2.961943750000000000e+04
-2.961956835937500000e+04
-2.961960351562500000e+04
-2.961971289062500000e+04
-2.961975000000000000e+04
-2.961982617187500000e+04
-2.961659960937500000e+04
-2.961635937500000000e+04
-2.961639453125000000e+04
-2.961653710937500000e+04
-2.961679296875000000e+04
-2.961702734375000000e+04
-2.961717187500000000e+04
-2.961721679687500000e+04
-2.961725781250000000e+04
-2.961730078125000000e+04
-2.961739062500000000e+04
-2.961978710937500000e+04
-2.962029492187500000e+04
-2.962038867187500000e+04
-2.962038476562500000e+04
-2.962026171875000000e+04
-2.961989453125000000e+04
-2.961975390625000000e+04
-2.962030273437500000e+04
-2.962190039062500000e+04
-2.962184179687500000e+04
-2.962170507812500000e+04
-2.962164843750000000e+04
-2.962158789062500000e+04
-2.962158593750000000e+04
-2.962165234375000000e+04
-2.962214453125000000e+04
-2.962387304687500000e+04
-2.962424804687500000e+04
-2.962463671875000000e+04
-2.962541210937500000e+04
-2.962718945312500000e+04
-2.962768164062500000e+04
-2.962716601562500000e+04
-2.962691210937500000e+04
-2.962502734375000000e+04
-2.962455273437500000e+04
-2.962433203125000000e+04
-2.962346093750000000e+04
-2.962188671875000000e+04
-2.962094335937500000e+04
-2.962044921875000000e+04
-2.962179296875000000e+04
-2.962201367187500000e+04
-2.962223828125000000e+04
-2.962333007812500000e+04
-2.962333984375000000e+04
-2.962275195312500000e+04
-2.962231445312500000e+04
-2.961972070312500000e+04
-2.961805078125000000e+04
-2.961816015625000000e+04
-2.961869921875000000e+04
-2.962145312500000000e+04
-2.962346289062500000e+04
-2.962381640625000000e+04
-2.962378710937500000e+04
-2.962366406250000000e+04
-2.962342773437500000e+04
-2.962359765625000000e+04
-2.962367773437500000e+04
-2.962358984375000000e+04
-2.962350195312500000e+04
-2.962328515625000000e+04
-2.962324218750000000e+04
-2.962301757812500000e+04
-2.962298437500000000e+04
-2.962298632812500000e+04
-2.962298437500000000e+04
-2.962282617187500000e+04
-2.962269140625000000e+04
-2.962239062500000000e+04
-2.962221679687500000e+04
-2.962228320312500000e+04
-2.962315234375000000e+04
-2.962326171875000000e+04
-2.962359570312500000e+04
-2.962362304687500000e+04
-2.962360351562500000e+04
-2.962331640625000000e+04
-2.962328906250000000e+04
-2.962339648437500000e+04
-2.962349414062500000e+04
-2.962367968750000000e+04
-2.962398242187500000e+04
-2.962436328125000000e+04
-2.962449023437500000e+04
-2.962454296875000000e+04
-2.962444531250000000e+04
-2.962404882812500000e+04
-2.962395312500000000e+04
-2.962385742187500000e+04
-2.962375781250000000e+04
-2.962366210937500000e+04
-2.962284179687500000e+04
-2.962243359375000000e+04
-2.962195898437500000e+04
-2.962051953125000000e+04
-2.962152343750000000e+04
-2.962184765625000000e+04
-2.962293164062500000e+04
-2.962296484375000000e+04
-2.962269140625000000e+04
-2.962258007812500000e+04
-2.962217187500000000e+04
-2.962117187500000000e+04
-2.962083007812500000e+04
-2.962048632812500000e+04
-2.962031445312500000e+04
-2.961963867187500000e+04
-2.961932812500000000e+04
-2.961893164062500000e+04
-2.961865234375000000e+04
-2.961855468750000000e+04
-2.961880078125000000e+04
-2.961973437500000000e+04
-2.962003320312500000e+04
-2.961799609375000000e+04
-2.961551757812500000e+04
-2.961407617187500000e+04
-2.961380273437500000e+04
-2.961374414062500000e+04
-2.961374218750000000e+04
-2.961385742187500000e+04
-2.961439257812500000e+04
-2.961486132812500000e+04
-2.961552929687500000e+04
-2.961592968750000000e+04
-2.961629492187500000e+04
-2.961672070312500000e+04
-2.961764257812500000e+04
-2.961791406250000000e+04
-2.961822460937500000e+04
-2.961825976562500000e+04
-2.961838671875000000e+04
-2.961844140625000000e+04
-2.961862695312500000e+04
-2.961869531250000000e+04
-2.961882421875000000e+04
-2.961808398437500000e+04
-2.961766406250000000e+04
-2.961692187500000000e+04
-2.961671679687500000e+04
-2.961669335937500000e+04
-2.961720898437500000e+04
-2.961742187500000000e+04
-2.961851171875000000e+04
-2.961966406250000000e+04
-2.962108984375000000e+04
-2.962108398437500000e+04
-2.962070507812500000e+04
-2.961869726562500000e+04
-2.961762109375000000e+04
-2.961750585937500000e+04
-2.961743164062500000e+04
-2.961740039062500000e+04
-2.961883203125000000e+04
-2.961897851562500000e+04
-2.961988671875000000e+04
-2.962003710937500000e+04
-2.962015625000000000e+04
-2.962067187500000000e+04
-2.962045117187500000e+04
-2.961995898437500000e+04
-2.961989062500000000e+04
-2.961977148437500000e+04
-2.961927929687500000e+04
-2.961919335937500000e+04
-2.961856250000000000e+04
-2.961776171875000000e+04
-2.961642578125000000e+04
-2.961309179687500000e+04
-2.961323242187500000e+04
-2.961337304687500000e+04
-2.961370898437500000e+04
-2.961343750000000000e+04
-2.961331445312500000e+04
-2.961327734375000000e+04
-2.961320898437500000e+04
-2.961317187500000000e+04
-2.961277148437500000e+04
-2.961142578125000000e+04
-2.961019140625000000e+04
-2.960907617187500000e+04
-2.960845117187500000e+04
-2.960824218750000000e+04
-2.960813867187500000e+04
-2.960911914062500000e+04
-2.960965820312500000e+04
-2.961025781250000000e+04
-2.961266601562500000e+04
-2.961274804687500000e+04
-2.961282031250000000e+04
-2.961290820312500000e+04
-2.961282812500000000e+04
-2.961267382812500000e+04
-2.960986718750000000e+04
-2.960833398437500000e+04
-2.960915039062500000e+04
-2.960967773437500000e+04
-2.961073242187500000e+04
-2.961195312500000000e+04
-2.961238476562500000e+04
-2.961525000000000000e+04
-2.961685937500000000e+04
-2.961689648437500000e+04
-2.961687109375000000e+04
-2.961682226562500000e+04
-2.961675781250000000e+04
-2.961646484375000000e+04
-2.961601953125000000e+04
-2.961590625000000000e+04
-2.961689648437500000e+04
-2.961802929687500000e+04
-2.961844531250000000e+04
-2.961886914062500000e+04
-2.961972265625000000e+04
-2.962206054687500000e+04
-2.962224023437500000e+04
-2.962244921875000000e+04
-2.962236914062500000e+04
-2.962184765625000000e+04
-2.961948632812500000e+04
-2.961899414062500000e+04
-2.961847460937500000e+04
-2.961825585937500000e+04
-2.961823242187500000e+04
-2.961822851562500000e+04
-2.961839062500000000e+04
-2.961842968750000000e+04
-2.961768750000000000e+04
-2.961754296875000000e+04
-2.961755273437500000e+04
-2.961769140625000000e+04
-2.961766406250000000e+04
-2.961765234375000000e+04
-2.961790429687500000e+04
-2.961841601562500000e+04
-2.961844726562500000e+04
-2.961790234375000000e+04
-2.961759765625000000e+04
-2.961744531250000000e+04
-2.961694726562500000e+04
-2.961541796875000000e+04
-2.961501953125000000e+04
-2.961431250000000000e+04
-2.961433203125000000e+04
-2.961449023437500000e+04
-2.961462890625000000e+04
-2.961551367187500000e+04
-2.961572656250000000e+04
-2.961608984375000000e+04
-2.961734570312500000e+04
-2.961837695312500000e+04
-2.961844531250000000e+04
-2.961847070312500000e+04
-2.961828710937500000e+04
-2.961774023437500000e+04
-2.961765039062500000e+04
-2.961722460937500000e+04
-2.961708398437500000e+04
-2.961711328125000000e+04
-2.961722070312500000e+04
-2.961751757812500000e+04
-2.961805273437500000e+04
-2.961815234375000000e+04
-2.961825195312500000e+04
-2.961844140625000000e+04
-2.961894140625000000e+04
-2.961943164062500000e+04
-2.961956640625000000e+04
-2.961952148437500000e+04
-2.961947656250000000e+04
-2.961941015625000000e+04
-2.961923828125000000e+04
-2.961784570312500000e+04
-2.961709765625000000e+04
-2.961550390625000000e+04
-2.961491210937500000e+04
-2.961428515625000000e+04
-2.961388085937500000e+04
-2.961378125000000000e+04
-2.961340820312500000e+04
-2.961310351562500000e+04
-2.961308398437500000e+04
-2.961333203125000000e+04
-2.961503125000000000e+04
-2.961538281250000000e+04
-2.961645507812500000e+04
-2.961859570312500000e+04
-2.961890234375000000e+04
-2.961855273437500000e+04
-2.961817187500000000e+04
-2.961802539062500000e+04
-2.961788281250000000e+04
-2.961706835937500000e+04
-2.961712304687500000e+04
-2.961727539062500000e+04
-2.961737890625000000e+04
-2.961801953125000000e+04
-2.961879492187500000e+04
-2.961872460937500000e+04
-2.961810546875000000e+04
-2.961655078125000000e+04
-2.961595898437500000e+04
-2.961511718750000000e+04
-2.961480468750000000e+04
-2.961477148437500000e+04
-2.961476171875000000e+04
-2.961475390625000000e+04
-2.961481250000000000e+04
-2.961490820312500000e+04
-2.961513867187500000e+04
-2.961547265625000000e+04
-2.961556054687500000e+04
-2.961563867187500000e+04
-2.961563085937500000e+04
-2.961555468750000000e+04
-2.961541992187500000e+04
-2.961538085937500000e+04
-2.961585351562500000e+04
-2.961716992187500000e+04
-2.961734765625000000e+04
-2.961735742187500000e+04
-2.961728125000000000e+04
-2.961725781250000000e+04
-2.961744335937500000e+04
-2.961767968750000000e+04
-2.961782226562500000e+04
-2.961788476562500000e+04
-2.961780664062500000e+04
-2.961761718750000000e+04
-2.961714453125000000e+04
-2.961679882812500000e+04
-2.961649218750000000e+04
-2.961636523437500000e+04
-2.961627929687500000e+04
-2.961628320312500000e+04
-2.961643945312500000e+04
-2.961651757812500000e+04
-2.961657617187500000e+04
-2.961707812500000000e+04
-2.961892578125000000e+04
-2.961970507812500000e+04
-2.962132812500000000e+04
-2.962152539062500000e+04
-2.962119531250000000e+04
-2.962109375000000000e+04
-2.962090039062500000e+04
-2.962042382812500000e+04
-2.962006445312500000e+04
-2.961947460937500000e+04
-2.961934570312500000e+04
-2.961888085937500000e+04
-2.961736523437500000e+04
-2.961689257812500000e+04
-2.961593750000000000e+04
-2.961561328125000000e+04
-2.961587304687500000e+04
-2.961636718750000000e+04
-2.961674023437500000e+04
-2.961657031250000000e+04
-2.961582617187500000e+04
-2.961579101562500000e+04
-2.961577539062500000e+04
-2.961550976562500000e+04
-2.961529687500000000e+04
-2.961544140625000000e+04
-2.961711328125000000e+04
-2.961726953125000000e+04
-2.961741796875000000e+04
-2.961823828125000000e+04
-2.961837890625000000e+04
-2.961871289062500000e+04
-2.961890429687500000e+04
-2.961908789062500000e+04
-2.961910546875000000e+04
-2.961878906250000000e+04
-2.961842773437500000e+04
-2.961822460937500000e+04
-2.961819335937500000e+04
-2.961972851562500000e+04
-2.962103320312500000e+04
-2.962145507812500000e+04
-2.962143554687500000e+04
-2.962138085937500000e+04
-2.961889062500000000e+04
-2.961799218750000000e+04
-2.961653515625000000e+04
-2.961658593750000000e+04
-2.961739257812500000e+04
-2.961756054687500000e+04
-2.961773242187500000e+04
-2.961865820312500000e+04
-2.961847265625000000e+04
-2.961764648437500000e+04
-2.961728710937500000e+04
-2.961713085937500000e+04
-2.961706640625000000e+04
-2.961686132812500000e+04
-2.961675000000000000e+04
-2.961676171875000000e+04
-2.961683789062500000e+04
-2.961694335937500000e+04
-2.961745117187500000e+04
-2.961804296875000000e+04
-2.961840429687500000e+04
-2.961862890625000000e+04
-2.961926367187500000e+04
-2.961861718750000000e+04
-2.961846484375000000e+04
-2.961830664062500000e+04
-2.961663476562500000e+04
-2.961715039062500000e+04
-2.961735351562500000e+04
-2.961625390625000000e+04
-2.961615039062500000e+04
-2.961604492187500000e+04
-2.961560546875000000e+04
-2.961555273437500000e+04
-2.961557031250000000e+04
-2.961583789062500000e+04
-2.961590039062500000e+04
-2.961613867187500000e+04
-2.961683203125000000e+04
-2.961776757812500000e+04
-2.961801367187500000e+04
-2.961822656250000000e+04
-2.961831054687500000e+04
-2.961835351562500000e+04
-2.961849804687500000e+04
-2.961856445312500000e+04
-2.961952148437500000e+04
-2.961977148437500000e+04
-2.961990625000000000e+04
-2.962072656250000000e+04
-2.962205664062500000e+04
-2.962282421875000000e+04
-2.962307031250000000e+04
-2.962325585937500000e+04
-2.962329492187500000e+04
-2.962333789062500000e+04
-2.962278710937500000e+04
-2.962208007812500000e+04
-2.962191601562500000e+04
-2.962180273437500000e+04
-2.962250585937500000e+04
-2.962255468750000000e+04
-2.962252343750000000e+04
-2.962245898437500000e+04
-2.962241796875000000e+04
-2.962236523437500000e+04
-2.962223632812500000e+04
-2.962216015625000000e+04
-2.962207617187500000e+04
-2.962199218750000000e+04
-2.962190625000000000e+04
-2.962182226562500000e+04
-2.962056835937500000e+04
-2.962016406250000000e+04
-2.962015039062500000e+04
-2.962014453125000000e+04
-2.962017578125000000e+04
-2.962024218750000000e+04
-2.962085937500000000e+04
-2.962129492187500000e+04
-2.962226367187500000e+04
-2.962240039062500000e+04
-2.962317968750000000e+04
-2.962308007812500000e+04
-2.962217187500000000e+04
-2.962167187500000000e+04
-2.962101562500000000e+04
-2.962087695312500000e+04
-2.962059960937500000e+04
-2.962047656250000000e+04
-2.962010546875000000e+04
-2.961957226562500000e+04
-2.961994335937500000e+04
-2.962037890625000000e+04
-2.962230468750000000e+04
-2.962259570312500000e+04
-2.962270312500000000e+04
-2.962257226562500000e+04
-2.962266015625000000e+04
-2.962307421875000000e+04
-2.962336328125000000e+04
-2.962390625000000000e+04
-2.962378515625000000e+04
-2.962181835937500000e+04
-2.962156445312500000e+04
-2.962063867187500000e+04
-2.961984375000000000e+04
-2.961963281250000000e+04
-2.961988476562500000e+04
-2.961990820312500000e+04
-2.961989843750000000e+04
-2.961985156250000000e+04
-2.961959765625000000e+04
-2.961966601562500000e+04
-2.961979101562500000e+04
-2.962069335937500000e+04
-2.962095898437500000e+04
-2.962145117187500000e+04
-2.962163867187500000e+04
-2.962176757812500000e+04
-2.962089453125000000e+04
-2.961944726562500000e+04
-2.961960937500000000e+04
-2.962063476562500000e+04
-2.962076953125000000e+04
-2.962090039062500000e+04
-2.962165429687500000e+04
-2.962147460937500000e+04
-2.962130468750000000e+04
-2.962120703125000000e+04
-2.961950976562500000e+04
-2.961940429687500000e+04
-2.961918750000000000e+04
-2.961861132812500000e+04
-2.961839062500000000e+04
-2.961809960937500000e+04
-2.961777343750000000e+04
-2.961771093750000000e+04
-2.961769140625000000e+04
-2.961770507812500000e+04
-2.961788476562500000e+04
-2.961812500000000000e+04
-2.961868750000000000e+04
-2.961955273437500000e+04
-2.961965625000000000e+04
-2.962018164062500000e+04
-2.962092578125000000e+04
-2.962096484375000000e+04
-2.962102148437500000e+04
-2.962105468750000000e+04
-2.962075781250000000e+04
-2.962069726562500000e+04
-2.962016210937500000e+04
-2.961971875000000000e+04
-2.961904882812500000e+04
-2.961865039062500000e+04
-2.961836328125000000e+04
-2.961730468750000000e+04
-2.961721289062500000e+04
-2.961722851562500000e+04
-2.961753320312500000e+04
-2.961766992187500000e+04
-2.961781835937500000e+04
-2.961836132812500000e+04
-2.961877343750000000e+04
-2.962012304687500000e+04
-2.962087500000000000e+04
-2.962118554687500000e+04
-2.962143750000000000e+04
-2.962177343750000000e+04
-2.962196093750000000e+04
-2.962203710937500000e+04
-2.962210742187500000e+04
-2.962223828125000000e+04
-2.962237109375000000e+04
-2.962251757812500000e+04
-2.962257421875000000e+04
-2.962221289062500000e+04
-2.962139648437500000e+04
-2.962076367187500000e+04
-2.962036914062500000e+04
-2.962018945312500000e+04
-2.962001757812500000e+04
-2.962007617187500000e+04
-2.962064453125000000e+04
-2.962090039062500000e+04
-2.962131250000000000e+04
-2.962135156250000000e+04
-2.962121679687500000e+04
-2.962108007812500000e+04
-2.962099414062500000e+04
-2.962096875000000000e+04
-2.962096093750000000e+04
-2.962098242187500000e+04
-2.962147070312500000e+04
-2.962156640625000000e+04
-2.962160937500000000e+04
-2.962114062500000000e+04
-2.962067968750000000e+04
-2.962080078125000000e+04
-2.962105859375000000e+04
-2.962173632812500000e+04
-2.962217968750000000e+04
-2.962235546875000000e+04
-2.962237109375000000e+04
-2.962169726562500000e+04
-2.962158007812500000e+04
-2.962023046875000000e+04
-2.961972460937500000e+04
-2.961958203125000000e+04
-2.961980468750000000e+04
-2.962070898437500000e+04
-2.962155273437500000e+04
-2.962222070312500000e+04
-2.962252734375000000e+04
-2.962261523437500000e+04
-2.962291601562500000e+04
-2.962297656250000000e+04
-2.962313867187500000e+04
-2.962281445312500000e+04
-2.962251757812500000e+04
-2.962190429687500000e+04
-2.961901367187500000e+04
-2.961804492187500000e+04
-2.961702539062500000e+04
-2.961693554687500000e+04
-2.961697070312500000e+04
-2.961804101562500000e+04
-2.961824609375000000e+04
-2.961971679687500000e+04
-2.962043750000000000e+04
-2.962086914062500000e+04
-2.962099218750000000e+04
-2.962110351562500000e+04
-2.962135546875000000e+04
-2.962140429687500000e+04
