-1.227380037307739258e-01 2.882706224918365479e-01 1.736806482076644897e-01 2.882706224918365479e-01 3.856176376342773438e+00 -1.751341223716735840e-01 1.736806482076644897e-01 -1.751341223716735840e-01 -3.219750881195068359e+00
1.558824348449707031e+01 3.793846130371093750e+00 2.423549652099609375e+00 3.793846130371093750e+00 1.907269096374511719e+01 -1.695760965347290039e+00 2.423549652099609375e+00 -1.695760965347290039e+00 3.953842401504516602e+00
1.916978263854980469e+01 4.319173336029052734e+00 2.878603696823120117e+00 4.319173336029052734e+00 2.252508163452148438e+01 -1.711386442184448242e+00 2.878603696823120117e+00 -1.711386442184448242e+00 6.408700942993164062e+00
2.818940734863281250e+01 5.444421291351318359e+00 3.793945550918579102e+00 5.444421291351318359e+00 3.107982254028320312e+01 -1.410768866539001465e+00 3.793945550918579102e+00 -1.410768866539001465e+00 1.303055477142333984e+01
3.631782150268554688e+01 6.407182693481445312e+00 4.152508258819580078e+00 6.407182693481445312e+00 3.914217376708984375e+01 -3.737255036830902100e-01 4.152508258819580078e+00 -3.737255036830902100e-01 2.034279632568359375e+01
2.215441703796386719e+01 7.475240230560302734e+00 -1.380539059638977051e+00 7.475240230560302734e+00 2.922915077209472656e+01 5.107910633087158203e+00 -1.380539059638977051e+00 5.107910633087158203e+00 2.112676811218261719e+01
1.126936912536621094e+01 7.251290798187255859e+00 -3.191648006439208984e+00 7.251290798187255859e+00 1.826219177246093750e+01 5.854274272918701172e+00 -3.191648006439208984e+00 5.854274272918701172e+00 1.561003494262695312e+01
3.001832962036132812e+00 6.344496726989746094e+00 -3.589402914047241211e+00 6.344496726989746094e+00 8.432150840759277344e+00 6.327470302581787109e+00 -3.589402914047241211e+00 6.327470302581787109e+00 1.044433593750000000e+01
1.325698494911193848e+00 5.964475631713867188e+00 -3.464685916900634766e+00 5.964475631713867188e+00 6.128149032592773438e+00 6.433969497680664062e+00 -3.464685916900634766e+00 6.433969497680664062e+00 9.307255744934082031e+00
-2.193542242050170898e+00 4.595293998718261719e+00 -2.529937028884887695e+00 4.595293998718261719e+00 7.428950667381286621e-01 6.699389934539794922e+00 -2.529937028884887695e+00 6.699389934539794922e+00 6.976506710052490234e+00
-3.024943351745605469e+00 4.092674732208251953e+00 -2.057241678237915039e+00 4.092674732208251953e+00 -5.056242346763610840e-01 6.750326156616210938e+00 -2.057241678237915039e+00 6.750326156616210938e+00 6.718046665191650391e+00
-3.338761568069458008e+00 3.830452919006347656e+00 -1.780065417289733887e+00 3.830452919006347656e+00 -9.863140583038330078e-01 6.760646820068359375e+00 -1.780065417289733887e+00 6.760646820068359375e+00 6.732467651367187500e+00
-5.146687984466552734e+00 2.116670608520507812e+00 1.139968484640121460e-01 2.116670608520507812e+00 -2.420944929122924805e+00 6.639065265655517578e+00 1.139968484640121460e-01 6.639065265655517578e+00 7.982590675354003906e+00
-8.739268302917480469e+00 -1.159523576498031616e-01 2.635590791702270508e+00 -1.159523576498031616e-01 -1.143412828445434570e+00 5.981848716735839844e+00 2.635590791702270508e+00 5.981848716735839844e+00 1.166366672515869141e+01
-1.128965473175048828e+01 -1.022646427154541016e+00 3.604730129241943359e+00 -1.022646427154541016e+00 2.482539266347885132e-01 5.558320999145507812e+00 3.604730129241943359e+00 5.558320999145507812e+00 1.374788665771484375e+01
-1.732574081420898438e+01 -1.867699742317199707e+00 4.663278579711914062e+00 -1.867699742317199707e+00 4.019134998321533203e+00 4.980631828308105469e+00 4.663278579711914062e+00 4.980631828308105469e+00 1.750507354736328125e+01
-1.854076385498046875e+01 1.279393434524536133e+00 3.875422000885009766e+00 1.279393434524536133e+00 1.117359828948974609e+01 7.692523479461669922e+00 3.875422000885009766e+00 7.692523479461669922e+00 2.500369453430175781e+01
-1.791309165954589844e+01 1.690057516098022461e+00 3.758821249008178711e+00 1.690057516098022461e+00 1.212567996978759766e+01 8.246743202209472656e+00 3.758821249008178711e+00 8.246743202209472656e+00 2.635696792602539062e+01
-1.453145599365234375e+01 2.893077611923217773e+00 3.093723058700561523e+00 2.893077611923217773e+00 1.587139797210693359e+01 1.073139095306396484e+01 3.093723058700561523e+00 1.073139095306396484e+01 3.216347885131835938e+01
-1.062216091156005859e+01 3.253376722335815430e+00 2.386113166809082031e+00 3.253376722335815430e+00 1.851963806152343750e+01 1.251805210113525391e+01 2.386113166809082031e+00 1.251805210113525391e+01 3.677462387084960938e+01
-9.078925132751464844e+00 3.252339601516723633e+00 2.157788276672363281e+00 3.252339601516723633e+00 1.936088180541992188e+01 1.304369926452636719e+01 2.157788276672363281e+00 1.304369926452636719e+01 3.810899353027343750e+01
-7.429934978485107422e+00 3.151048183441162109e+00 1.925748348236083984e+00 3.151048183441162109e+00 2.017415237426757812e+01 1.349571228027343750e+01 1.925748348236083984e+00 1.349571228027343750e+01 3.926587295532226562e+01
-4.798480987548828125e+00 2.942875862121582031e+00 1.702754259109497070e+00 2.942875862121582031e+00 2.144650077819824219e+01 1.401365947723388672e+01 1.702754259109497070e+00 1.401365947723388672e+01 4.059698867797851562e+01
-2.944725513458251953e+00 2.737162113189697266e+00 1.604881525039672852e+00 2.737162113189697266e+00 2.232806968688964844e+01 1.426033973693847656e+01 1.604881525039672852e+00 1.426033973693847656e+01 4.120325851440429688e+01
-1.912226080894470215e+00 2.618277311325073242e+00 1.572164893150329590e+00 2.618277311325073242e+00 2.282733917236328125e+01 1.435767364501953125e+01 1.572164893150329590e+00 1.435767364501953125e+01 4.143629455566406250e+01
-9.050664305686950684e-01 2.474113464355468750e+00 1.573301315307617188e+00 2.474113464355468750e+00 2.333535194396972656e+01 1.445003986358642578e+01 1.573301315307617188e+00 1.445003986358642578e+01 4.165473556518554688e+01
1.191937550902366638e-01 2.328781366348266602e+00 1.616176128387451172e+00 2.328781366348266602e+00 2.381743621826171875e+01 1.449289989471435547e+01 1.616176128387451172e+00 1.449289989471435547e+01 4.178306961059570312e+01
1.209336280822753906e+00 2.172576427459716797e+00 1.653992295265197754e+00 2.172576427459716797e+00 2.435076332092285156e+01 1.452574348449707031e+01 1.653992295265197754e+00 1.452574348449707031e+01 4.186294174194335938e+01
1.291769123077392578e+01 4.440349340438842773e-01 2.848371505737304688e+00 4.440349340438842773e-01 2.938602066040039062e+01 1.363406562805175781e+01 2.848371505737304688e+00 1.363406562805175781e+01 3.976375579833984375e+01
2.144723510742187500e+01 -5.812289714813232422e-01 3.625653505325317383e+00 -5.812289714813232422e-01 3.156957054138183594e+01 1.247221374511718750e+01 3.625653505325317383e+00 1.247221374511718750e+01 3.543389511108398438e+01
2.694985389709472656e+01 -9.021917581558227539e-01 3.688499450683593750e+00 -9.021917581558227539e-01 3.173680877685546875e+01 1.183453178405761719e+01 3.688499450683593750e+00 1.183453178405761719e+01 3.098834800720214844e+01
2.880674552917480469e+01 -9.218330383300781250e-01 3.688085794448852539e+00 -9.218330383300781250e-01 3.139853477478027344e+01 1.170398235321044922e+01 3.688085794448852539e+00 1.170398235321044922e+01 2.887565231323242188e+01
2.949386596679687500e+01 5.902944087982177734e+00 5.886249065399169922e+00 5.902944087982177734e+00 2.581180381774902344e+01 7.356907367706298828e+00 5.886249065399169922e+00 7.356907367706298828e+00 4.140305042266845703e+00
2.317419052124023438e+01 6.609507083892822266e+00 5.882434368133544922e+00 6.609507083892822266e+00 2.203321456909179688e+01 -2.116665124893188477e+00 5.882434368133544922e+00 -2.116665124893188477e+00 2.709486246109008789e+00
2.235716056823730469e+01 6.505129814147949219e+00 5.795222759246826172e+00 6.505129814147949219e+00 2.145929527282714844e+01 -2.924926280975341797e+00 5.795222759246826172e+00 -2.924926280975341797e+00 2.902397871017456055e+00
1.481033134460449219e+01 5.805408477783203125e+00 4.894741058349609375e+00 5.805408477783203125e+00 1.608379173278808594e+01 -8.473123550415039062e+00 4.894741058349609375e+00 -8.473123550415039062e+00 4.762188911437988281e+00
1.219351291656494141e+01 5.662743568420410156e+00 4.523485183715820312e+00 5.662743568420410156e+00 1.424618339538574219e+01 -9.901418685913085938e+00 4.523485183715820312e+00 -9.901418685913085938e+00 5.483042716979980469e+00
9.303483009338378906e+00 5.620054244995117188e+00 4.151516914367675781e+00 5.620054244995117188e+00 1.230772686004638672e+01 -1.126950263977050781e+01 4.151516914367675781e+00 -1.126950263977050781e+01 6.186550617218017578e+00
3.357791662216186523e+00 5.584791183471679688e+00 3.346381425857543945e+00 5.584791183471679688e+00 8.491069793701171875e+00 -1.340946102142333984e+01 3.346381425857543945e+00 -1.340946102142333984e+01 7.839296340942382812e+00
-1.070040941238403320e+00 5.561113357543945312e+00 2.797927618026733398e+00 5.561113357543945312e+00 5.683037281036376953e+00 -1.459106349945068359e+01 2.797927618026733398e+00 -1.459106349945068359e+01 9.055647850036621094e+00
-2.509635210037231445e+00 5.520959854125976562e+00 2.625711917877197266e+00 5.520959854125976562e+00 4.837489128112792969e+00 -1.487116718292236328e+01 2.625711917877197266e+00 -1.487116718292236328e+01 9.466679573059082031e+00
-6.639897346496582031e+00 5.458946228027343750e+00 2.115770101547241211e+00 5.458946228027343750e+00 2.386131763458251953e+00 -1.534630680084228516e+01 2.115770101547241211e+00 -1.534630680084228516e+01 1.067015743255615234e+01
-1.271426296234130859e+01 5.188488483428955078e+00 1.329418778419494629e+00 5.188488483428955078e+00 -1.020660400390625000e+00 -1.491678714752197266e+01 1.329418778419494629e+00 -1.491678714752197266e+01 1.231790351867675781e+01
-1.650932693481445312e+01 4.897201538085937500e+00 7.088820934295654297e-01 4.897201538085937500e+00 -2.965152978897094727e+00 -1.346161651611328125e+01 7.088820934295654297e-01 -1.346161651611328125e+01 1.318369102478027344e+01
-1.994023513793945312e+01 4.498866558074951172e+00 -1.468309462070465088e-01 4.498866558074951172e+00 -4.356608390808105469e+00 -1.059378528594970703e+01 -1.468309462070465088e-01 -1.059378528594970703e+01 1.345028114318847656e+01
-2.042827224731445312e+01 4.421186923980712891e+00 -3.107408881187438965e-01 4.421186923980712891e+00 -4.443461418151855469e+00 -9.951043128967285156e+00 -3.107408881187438965e-01 -9.951043128967285156e+00 1.340867710113525391e+01
-2.118585395812988281e+01 4.288142681121826172e+00 -6.253034472465515137e-01 4.288142681121826172e+00 -4.404113769531250000e+00 -8.664804458618164062e+00 -6.253034472465515137e-01 -8.664804458618164062e+00 1.321685504913330078e+01
-2.203645706176757812e+01 4.048069000244140625e+00 -1.066024065017700195e+00 4.048069000244140625e+00 -4.006020069122314453e+00 -6.708455085754394531e+00 -1.066024065017700195e+00 -6.708455085754394531e+00 1.261794948577880859e+01
-2.233159065246582031e+01 3.786872625350952148e+00 -1.390096187591552734e+00 3.786872625350952148e+00 -2.940565586090087891e+00 -4.885339736938476562e+00 -1.390096187591552734e+00 -4.885339736938476562e+00 1.175140476226806641e+01
-2.237155532836914062e+01 3.685715436935424805e+00 -1.471459627151489258e+00 3.685715436935424805e+00 -2.510481595993041992e+00 -4.338218212127685547e+00 -1.471459627151489258e+00 -4.338218212127685547e+00 1.136544227600097656e+01
-2.155666542053222656e+01 2.963108301162719727e+00 -1.800477385520935059e+00 2.963108301162719727e+00 7.955983281135559082e-01 -2.001631259918212891e+00 -1.800477385520935059e+00 -2.001631259918212891e+00 9.557959556579589844e+00
-2.087224197387695312e+01 2.580716371536254883e+00 -1.861464381217956543e+00 2.580716371536254883e+00 2.345357656478881836e+00 -1.259852290153503418e+00 -1.861464381217956543e+00 -1.259852290153503418e+00 8.811164855957031250e+00
-1.889736557006835938e+01 1.568744301795959473e+00 -1.841509938240051270e+00 1.568744301795959473e+00 5.717062950134277344e+00 -2.214439958333969116e-02 -1.841509938240051270e+00 -2.214439958333969116e-02 7.348687171936035156e+00
-8.114660263061523438e+00 -2.703035593032836914e+00 -5.015503168106079102e-01 -2.703035593032836914e+00 1.445390224456787109e+01 3.236557722091674805e+00 -5.015503168106079102e-01 3.236557722091674805e+00 6.146275520324707031e+00
-3.124402046203613281e+00 -4.322519302368164062e+00 2.159657478332519531e-01 -4.322519302368164062e+00 1.628272628784179688e+01 4.237836360931396484e+00 2.159657478332519531e-01 4.237836360931396484e+00 6.905437469482421875e+00
2.105168104171752930e+00 -5.961891651153564453e+00 7.697273492813110352e-01 -5.961891651153564453e+00 1.765425300598144531e+01 4.992674350738525391e+00 7.697273492813110352e-01 4.992674350738525391e+00 7.898123741149902344e+00
1.107409858703613281e+01 -8.865070343017578125e+00 8.976837396621704102e-01 -8.865070343017578125e+00 1.966357231140136719e+01 5.142999172210693359e+00 8.976837396621704102e-01 5.142999172210693359e+00 1.064368343353271484e+01
2.061089324951171875e+01 -1.266731071472167969e+01 -7.894580960273742676e-01 -1.266731071472167969e+01 2.246566200256347656e+01 2.463380575180053711e+00 -7.894580960273742676e-01 2.463380575180053711e+00 1.616565513610839844e+01
2.433102607727050781e+01 -1.452979850769042969e+01 -1.976130008697509766e+00 -1.452979850769042969e+01 2.471264266967773438e+01 -2.692033350467681885e-01 -1.976130008697509766e+00 -2.692033350467681885e-01 2.005397796630859375e+01
2.696059036254882812e+01 -1.634879493713378906e+01 -2.491391420364379883e+00 -1.634879493713378906e+01 2.857925987243652344e+01 -4.252648830413818359e+00 -2.491391420364379883e+00 -4.252648830413818359e+00 2.450334167480468750e+01
2.738284111022949219e+01 -1.779525566101074219e+01 -1.136193394660949707e+00 -1.779525566101074219e+01 3.341344451904296875e+01 -8.331964492797851562e+00 -1.136193394660949707e+00 -8.331964492797851562e+00 2.740665435791015625e+01
2.721858978271484375e+01 -1.801219558715820312e+01 -7.204175591468811035e-01 -1.801219558715820312e+01 3.429183959960937500e+01 -8.971074104309082031e+00 -7.204175591468811035e-01 -8.971074104309082031e+00 2.765708541870117188e+01
2.669268798828125000e+01 -1.848087882995605469e+01 2.505224049091339111e-01 -1.848087882995605469e+01 3.601842117309570312e+01 -1.015453338623046875e+01 2.505224049091339111e-01 -1.015453338623046875e+01 2.801506423950195312e+01
2.536527061462402344e+01 -1.911485671997070312e+01 1.974141955375671387e+00 -1.911485671997070312e+01 3.846729278564453125e+01 -1.171250724792480469e+01 1.974141955375671387e+00 -1.171250724792480469e+01 2.809901428222656250e+01
2.229235458374023438e+01 -1.999943733215332031e+01 5.187516212463378906e+00 -1.999943733215332031e+01 4.214868927001953125e+01 -1.359798622131347656e+01 5.187516212463378906e+00 -1.359798622131347656e+01 2.761094856262207031e+01
2.089540290832519531e+01 -2.024409866333007812e+01 6.415832996368408203e+00 -2.024409866333007812e+01 4.336791992187500000e+01 -1.402136898040771484e+01 6.415832996368408203e+00 -1.402136898040771484e+01 2.728311347961425781e+01
1.861745262145996094e+01 -2.043500137329101562e+01 8.056688308715820312e+00 -2.043500137329101562e+01 4.486606216430664062e+01 -1.422572612762451172e+01 8.056688308715820312e+00 -1.422572612762451172e+01 2.679510307312011719e+01
1.529251956939697266e+01 -2.012825965881347656e+01 9.953543663024902344e+00 -2.012825965881347656e+01 4.661677169799804688e+01 -1.337032413482666016e+01 9.953543663024902344e+00 -1.337032413482666016e+01 2.650415611267089844e+01
1.246111202239990234e+01 -1.828937911987304688e+01 1.051636314392089844e+01 -1.828937911987304688e+01 4.753979110717773438e+01 -1.011479663848876953e+01 1.051636314392089844e+01 -1.011479663848876953e+01 2.740798950195312500e+01
1.350908279418945312e+01 -1.316246604919433594e+01 7.108751296997070312e+00 -1.316246604919433594e+01 4.516300964355468750e+01 -4.417044162750244141e+00 7.108751296997070312e+00 -4.417044162750244141e+00 3.100902938842773438e+01
1.516764831542968750e+01 -1.077107715606689453e+01 4.958426475524902344e+00 -1.077107715606689453e+01 4.280418395996093750e+01 -2.915228128433227539e+00 4.958426475524902344e+00 -2.915228128433227539e+00 3.240279006958007812e+01
1.757973480224609375e+01 -7.944734573364257812e+00 2.161056995391845703e+00 -7.944734573364257812e+00 3.907818603515625000e+01 -2.048220634460449219e+00 2.161056995391845703e+00 -2.048220634460449219e+00 3.342697143554687500e+01
1.808499526977539062e+01 -7.418478965759277344e+00 1.641677379608154297e+00 -7.418478965759277344e+00 3.831997680664062500e+01 -2.006292343139648438e+00 1.641677379608154297e+00 -2.006292343139648438e+00 3.352619934082031250e+01
2.039867401123046875e+01 -5.231839179992675781e+00 -7.900242805480957031e-01 -5.231839179992675781e+00 3.446540451049804688e+01 -2.459494113922119141e+00 -7.900242805480957031e-01 -2.459494113922119141e+00 3.340627288818359375e+01
2.457325744628906250e+01 -3.328094244003295898e+00 -4.453357219696044922e+00 -3.328094244003295898e+00 2.709518814086914062e+01 -7.760059833526611328e+00 -4.453357219696044922e+00 -7.760059833526611328e+00 3.019253540039062500e+01
2.422645378112792969e+01 -3.512363433837890625e+00 -4.580250263214111328e+00 -3.512363433837890625e+00 2.639441490173339844e+01 -8.677474021911621094e+00 -4.580250263214111328e+00 -8.677474021911621094e+00 2.956473350524902344e+01
1.845162773132324219e+01 -5.639526367187500000e+00 -4.606331825256347656e+00 -5.639526367187500000e+00 2.143375396728515625e+01 -1.459791755676269531e+01 -4.606331825256347656e+00 -1.459791755676269531e+01 2.480309486389160156e+01
1.742775535583496094e+01 -6.277023315429687500e+00 -4.606730461120605469e+00 -6.277023315429687500e+00 2.027896308898925781e+01 -1.550591850280761719e+01 -4.606730461120605469e+00 -1.550591850280761719e+01 2.371828079223632812e+01
1.909629058837890625e+01 -1.689868354797363281e+01 -8.519720077514648438e+00 -1.689868354797363281e+01 5.496453762054443359e+00 -1.884313011169433594e+01 -8.519720077514648438e+00 -1.884313011169433594e+01 2.164478874206542969e+01
1.957748222351074219e+01 -1.729570388793945312e+01 -8.817204475402832031e+00 -1.729570388793945312e+01 4.879250049591064453e+00 -1.863757705688476562e+01 -8.817204475402832031e+00 -1.863757705688476562e+01 2.249105834960937500e+01
2.001176071166992188e+01 -1.763881301879882812e+01 -9.047920227050781250e+00 -1.763881301879882812e+01 4.290020942687988281e+00 -1.837971305847167969e+01 -9.047920227050781250e+00 -1.837971305847167969e+01 2.337859153747558594e+01
2.261525154113769531e+01 -1.764323043823242188e+01 -8.480754852294921875e+00 -1.764323043823242188e+01 1.271629780530929565e-01 -1.528242301940917969e+01 -8.480754852294921875e+00 -1.528242301940917969e+01 3.569210433959960938e+01
2.248311805725097656e+01 -1.740565681457519531e+01 -8.147201538085937500e+00 -1.740565681457519531e+01 2.571514062583446503e-02 -1.512699508666992188e+01 -8.147201538085937500e+00 -1.512699508666992188e+01 3.609045791625976562e+01
1.879095268249511719e+01 -1.437514019012451172e+01 -4.902852535247802734e+00 -1.437514019012451172e+01 7.498452663421630859e-01 -1.352077388763427734e+01 -4.902852535247802734e+00 -1.352077388763427734e+01 3.287887191772460938e+01
1.774487876892089844e+01 -1.389036655426025391e+01 -4.943127155303955078e+00 -1.389036655426025391e+01 1.552577137947082520e+00 -1.274495410919189453e+01 -4.943127155303955078e+00 -1.274495410919189453e+01 3.052168846130371094e+01
1.960349082946777344e+01 -1.214583778381347656e+01 -7.137219429016113281e+00 -1.214583778381347656e+01 6.708928108215332031e+00 -8.701025009155273438e+00 -7.137219429016113281e+00 -8.701025009155273438e+00 3.018830108642578125e+01
2.068106651306152344e+01 -1.153765583038330078e+01 -7.340697765350341797e+00 -1.153765583038330078e+01 7.993426322937011719e+00 -7.718587398529052734e+00 -7.340697765350341797e+00 -7.718587398529052734e+00 3.158313179016113281e+01
2.355402755737304688e+01 -9.916902542114257812e+00 -7.297266960144042969e+00 -9.916902542114257812e+00 1.126326370239257812e+01 -5.367642402648925781e+00 -7.297266960144042969e+00 -5.367642402648925781e+00 3.499064254760742188e+01
3.314491271972656250e+01 -2.621135234832763672e+00 -5.226593494415283203e+00 -2.621135234832763672e+00 2.433008575439453125e+01 2.041855573654174805e+00 -5.226593494415283203e+00 2.041855573654174805e+00 4.519337081909179688e+01
3.380509567260742188e+01 -1.965864300727844238e+00 -5.066977024078369141e+00 -1.965864300727844238e+00 2.569851684570312500e+01 2.502655029296875000e+00 -5.066977024078369141e+00 2.502655029296875000e+00 4.581291580200195312e+01
3.506904983520507812e+01 -1.353994458913803101e-01 -4.821877479553222656e+00 -1.353994458913803101e-01 2.959697341918945312e+01 3.416396141052246094e+00 -4.821877479553222656e+00 3.416396141052246094e+00 4.686906814575195312e+01
3.542161941528320312e+01 1.445142030715942383e+00 -5.038116455078125000e+00 1.445142030715942383e+00 3.410456085205078125e+01 3.296668767929077148e+00 -5.038116455078125000e+00 3.296668767929077148e+00 4.647505569458007812e+01
3.365427780151367188e+01 1.841663956642150879e+00 -6.083869934082031250e+00 1.841663956642150879e+00 3.914604187011718750e+01 8.265552520751953125e-01 -6.083869934082031250e+00 8.265552520751953125e-01 4.318360519409179688e+01
3.325922012329101562e+01 1.708973050117492676e+00 -6.242233753204345703e+00 1.708973050117492676e+00 3.989385604858398438e+01 2.945917844772338867e-01 -6.242233753204345703e+00 2.945917844772338867e-01 4.261636352539062500e+01
3.283298873901367188e+01 1.526169657707214355e+00 -6.354109287261962891e+00 1.526169657707214355e+00 4.058313369750976562e+01 -2.485311180353164673e-01 -6.354109287261962891e+00 -2.485311180353164673e-01 4.204081344604492188e+01
3.180260848999023438e+01 8.957102298736572266e-01 -6.466504096984863281e+00 8.957102298736572266e-01 4.272392272949218750e+01 -1.690926313400268555e+00 -6.466504096984863281e+00 -1.690926313400268555e+00 4.088232803344726562e+01
3.139913558959960938e+01 -7.206387519836425781e-01 -4.946845054626464844e+00 -7.206387519836425781e-01 4.797844696044921875e+01 -3.829328060150146484e+00 -4.946845054626464844e+00 -3.829328060150146484e+00 4.210907745361328125e+01
3.165937995910644531e+01 -9.186918139457702637e-01 -4.582831382751464844e+00 -9.186918139457702637e-01 4.871849441528320312e+01 -3.964453697204589844e+00 -4.582831382751464844e+00 -3.964453697204589844e+00 4.269286727905273438e+01
3.194076728820800781e+01 -1.127629399299621582e+00 -4.197743415832519531e+00 -1.127629399299621582e+00 4.940452575683593750e+01 -4.052042007446289062e+00 -4.197743415832519531e+00 -4.052042007446289062e+00 4.331070327758789062e+01
3.269134902954101562e+01 -1.542841553688049316e+00 -3.364558935165405273e+00 -1.542841553688049316e+00 5.053350830078125000e+01 -4.107155323028564453e+00 -3.364558935165405273e+00 -4.107155323028564453e+00 4.462943267822265625e+01
3.366183853149414062e+01 -1.981529355049133301e+00 -2.544229030609130859e+00 -1.981529355049133301e+00 5.138066864013671875e+01 -4.015819549560546875e+00 -2.544229030609130859e+00 -4.015819549560546875e+00 4.593424987792968750e+01
3.606678009033203125e+01 -3.060804843902587891e+00 -1.326057076454162598e+00 -3.060804843902587891e+00 5.128784942626953125e+01 -3.658544778823852539e+00 -1.326057076454162598e+00 -3.658544778823852539e+00 4.763760757446289062e+01
3.726934051513671875e+01 -3.757322549819946289e+00 -8.951396942138671875e-01 -3.757322549819946289e+00 5.014758300781250000e+01 -3.423117876052856445e+00 -8.951396942138671875e-01 -3.423117876052856445e+00 4.781737899780273438e+01
4.047805023193359375e+01 -6.325289249420166016e+00 -6.565894484519958496e-01 -6.325289249420166016e+00 4.252046203613281250e+01 -2.771651268005371094e+00 -6.565894484519958496e-01 -2.771651268005371094e+00 4.525109863281250000e+01
4.248609542846679688e+01 -8.713448524475097656e+00 -1.018135786056518555e+00 -8.713448524475097656e+00 3.056308364868164062e+01 -2.449931859970092773e+00 -1.018135786056518555e+00 -2.449931859970092773e+00 3.964581680297851562e+01
4.266884613037109375e+01 -9.209109306335449219e+00 -1.061758160591125488e+00 -9.209109306335449219e+00 2.640775108337402344e+01 -2.373005390167236328e+00 -1.061758160591125488e+00 -2.373005390167236328e+00 3.759736633300781250e+01
4.143677902221679688e+01 -9.799654006958007812e+00 -6.899535655975341797e-01 -9.799654006958007812e+00 1.699816894531250000e+01 -2.065595388412475586e+00 -6.899535655975341797e-01 -2.065595388412475586e+00 3.312020874023437500e+01
3.300360488891601562e+01 -7.280469417572021484e+00 2.265317916870117188e+00 -7.280469417572021484e+00 7.826878070831298828e+00 -9.302278757095336914e-01 2.265317916870117188e+00 -9.302278757095336914e-01 2.928417778015136719e+01
3.209385681152343750e+01 -6.819522857666015625e+00 2.549651145935058594e+00 -6.819522857666015625e+00 7.914275169372558594e+00 -8.609663248062133789e-01 2.549651145935058594e+00 -8.609663248062133789e-01 2.943321037292480469e+01
3.044697570800781250e+01 -5.819630622863769531e+00 3.053155660629272461e+00 -5.819630622863769531e+00 8.482737541198730469e+00 -7.586303949356079102e-01 3.053155660629272461e+00 -7.586303949356079102e-01 3.007295608520507812e+01
2.963281250000000000e+01 -5.267858028411865234e+00 3.259109497070312500e+00 -5.267858028411865234e+00 8.982833862304687500e+00 -7.420964837074279785e-01 3.259109497070312500e+00 -7.420964837074279785e-01 3.049148368835449219e+01
2.764312553405761719e+01 -3.556285142898559570e+00 3.603500843048095703e+00 -3.556285142898559570e+00 1.106575489044189453e+01 -7.547221779823303223e-01 3.603500843048095703e+00 -7.547221779823303223e-01 3.243281555175781250e+01
2.708303260803222656e+01 -2.976725578308105469e+00 3.625065565109252930e+00 -2.976725578308105469e+00 1.193664360046386719e+01 -8.051158189773559570e-01 3.625065565109252930e+00 -8.051158189773559570e-01 3.319688034057617188e+01
2.557617378234863281e+01 5.662007257342338562e-02 2.945017814636230469e+00 5.662007257342338562e-02 1.763718223571777344e+01 -1.181770682334899902e+00 2.945017814636230469e+00 -1.181770682334899902e+00 3.730062866210937500e+01
2.636122894287109375e+01 3.778643608093261719e+00 1.268318176269531250e+00 3.778643608093261719e+00 2.645988655090332031e+01 -2.311494827270507812e+00 1.268318176269531250e+00 -2.311494827270507812e+00 4.239899826049804688e+01
2.668458747863769531e+01 4.247467041015625000e+00 1.013879895210266113e+00 4.247467041015625000e+00 2.755545997619628906e+01 -2.516678094863891602e+00 1.013879895210266113e+00 -2.516678094863891602e+00 4.283738327026367188e+01
2.706637382507324219e+01 4.680483818054199219e+00 7.526612281799316406e-01 4.680483818054199219e+00 2.860408020019531250e+01 -2.699547767639160156e+00 7.526612281799316406e-01 -2.699547767639160156e+00 4.324225616455078125e+01
2.870446205139160156e+01 5.736675739288330078e+00 -1.117866709828376770e-01 5.736675739288330078e+00 3.150001525878906250e+01 -3.168833494186401367e+00 -1.117866709828376770e-01 -3.168833494186401367e+00 4.402677917480468750e+01
3.615544891357421875e+01 7.942236900329589844e+00 -2.627592563629150391e+00 7.942236900329589844e+00 3.781299209594726562e+01 -3.581025362014770508e+00 -2.627592563629150391e+00 -3.581025362014770508e+00 4.294289398193359375e+01
3.720732116699218750e+01 8.212060928344726562e+00 -2.922912359237670898e+00 8.212060928344726562e+00 3.848200988769531250e+01 -3.626777172088623047e+00 -2.922912359237670898e+00 -3.626777172088623047e+00 4.281914138793945312e+01
4.225597000122070312e+01 9.715163230895996094e+00 -4.367430686950683594e+00 9.715163230895996094e+00 4.218910980224609375e+01 -3.779471397399902344e+00 -4.367430686950683594e+00 -3.779471397399902344e+00 4.218147277832031250e+01
4.420183181762695312e+01 1.031070899963378906e+01 -4.945224285125732422e+00 1.031070899963378906e+01 4.393472671508789062e+01 -3.835254192352294922e+00 -4.945224285125732422e+00 -3.835254192352294922e+00 4.208248901367187500e+01
5.032839965820312500e+01 1.203931140899658203e+01 -8.471326828002929688e+00 1.203931140899658203e+01 5.605675506591796875e+01 -5.355843067169189453e+00 -8.471326828002929688e+00 -5.355843067169189453e+00 4.386886596679687500e+01
4.947204208374023438e+01 1.176871967315673828e+01 -9.618795394897460938e+00 1.176871967315673828e+01 6.322907638549804688e+01 -6.439244747161865234e+00 -9.618795394897460938e+00 -6.439244747161865234e+00 4.523846054077148438e+01
4.862010192871093750e+01 1.159711647033691406e+01 -9.894342422485351562e+00 1.159711647033691406e+01 6.515666198730468750e+01 -6.849776268005371094e+00 -9.894342422485351562e+00 -6.849776268005371094e+00 4.540829849243164062e+01
4.687043762207031250e+01 1.104135227203369141e+01 -1.028797054290771484e+01 1.104135227203369141e+01 6.789710998535156250e+01 -7.471637248992919922e+00 -1.028797054290771484e+01 -7.471637248992919922e+00 4.508089447021484375e+01
4.656478118896484375e+01 1.093860816955566406e+01 -1.038945388793945312e+01 1.093860816955566406e+01 6.829875946044921875e+01 -7.568467140197753906e+00 -1.038945388793945312e+01 -7.568467140197753906e+00 4.484687423706054688e+01
4.621205520629882812e+01 1.084940910339355469e+01 -1.046408748626708984e+01 1.084940910339355469e+01 6.858267211914062500e+01 -7.624593734741210938e+00 -1.046408748626708984e+01 -7.624593734741210938e+00 4.449522399902343750e+01
4.670740127563476562e+01 1.265740394592285156e+01 -1.006614017486572266e+01 1.265740394592285156e+01 5.650070571899414062e+01 -3.176581382751464844e+00 -1.006614017486572266e+01 -3.176581382751464844e+00 3.424718856811523438e+01
4.730101776123046875e+01 1.269745349884033203e+01 -9.998649597167968750e+00 1.269745349884033203e+01 5.527719879150390625e+01 -2.867340326309204102e+00 -9.998649597167968750e+00 -2.867340326309204102e+00 3.394533920288085938e+01
5.599689865112304688e+01 1.040495777130126953e+01 -9.156368255615234375e+00 1.040495777130126953e+01 4.195582199096679688e+01 -1.110600829124450684e+00 -9.156368255615234375e+00 -1.110600829124450684e+00 3.170207786560058594e+01