-6.058980859375000000e+04
-6.058889843750000000e+04
-6.058538281250000000e+04
-6.058086328125000000e+04
-6.056297265625000000e+04
-6.055389062500000000e+04
-6.055096093750000000e+04
-6.055069921875000000e+04
-6.055041406250000000e+04
-6.055066406250000000e+04
-6.055082421875000000e+04
-6.055119921875000000e+04
-6.055213671875000000e+04
-6.055097656250000000e+04
-6.054998437500000000e+04
-6.054961328125000000e+04
-6.054923437500000000e+04
-6.054844140625000000e+04
-6.054803515625000000e+04
-6.054762109375000000e+04
-6.054720703125000000e+04
-6.054517968750000000e+04
-6.054479296875000000e+04
-6.054406250000000000e+04
-6.054054296875000000e+04
-6.054042578125000000e+04
-6.054032031250000000e+04
-6.053983593750000000e+04
-6.053980078125000000e+04
-6.053975000000000000e+04
-6.053974218750000000e+04
-6.053975781250000000e+04
-6.053976953125000000e+04
-6.053978125000000000e+04
-6.053979296875000000e+04
-6.053980468750000000e+04
-6.053982421875000000e+04
-6.053981250000000000e+04
-6.053978125000000000e+04
-6.053971875000000000e+04
-6.053967187500000000e+04
-6.053953515625000000e+04
-6.053945312500000000e+04
-6.053925000000000000e+04
-6.053912500000000000e+04
-6.053883984375000000e+04
-6.053767968750000000e+04
-6.053722656250000000e+04
-6.053676171875000000e+04
-6.053605078125000000e+04
-6.053494921875000000e+04
-6.053455468750000000e+04
-6.053335156250000000e+04
-6.053319140625000000e+04
-6.053303515625000000e+04
-6.053288281250000000e+04
-6.053273437500000000e+04
-6.053258203125000000e+04
-6.053243359375000000e+04
-6.053228906250000000e+04
-6.053189843750000000e+04
-6.053121093750000000e+04
-6.053112890625000000e+04
-6.053105859375000000e+04
-6.053103515625000000e+04
-6.053099218750000000e+04
-6.053068359375000000e+04
-6.053060546875000000e+04
-6.053030859375000000e+04
-6.052992578125000000e+04
-6.052978515625000000e+04
-6.052822265625000000e+04
-6.052809375000000000e+04
-6.052796484375000000e+04
-6.052730078125000000e+04
-6.052613281250000000e+04
-6.052576171875000000e+04
-6.052483203125000000e+04
-6.052426562500000000e+04
-6.052392968750000000e+04
-6.052395312500000000e+04
-6.052400000000000000e+04
-6.052404687500000000e+04
-6.052406250000000000e+04
-6.052407031250000000e+04
-6.052406640625000000e+04
-6.052391406250000000e+04
-6.052384765625000000e+04
-6.052369921875000000e+04
-6.052353515625000000e+04
-6.052345312500000000e+04
-6.052336718750000000e+04
-6.052321093750000000e+04
-6.052297656250000000e+04
-6.052289453125000000e+04
-6.052271875000000000e+04
-6.052240234375000000e+04
-6.052202734375000000e+04
-6.052189062500000000e+04
-6.052175000000000000e+04
-6.052160937500000000e+04
-6.052146875000000000e+04
-6.052119531250000000e+04
-6.052071484375000000e+04
-6.052062109375000000e+04
-6.052019921875000000e+04
-6.052000781250000000e+04
-6.051993359375000000e+04
-6.051945312500000000e+04
-6.051910156250000000e+04
-6.051870703125000000e+04
-6.051856250000000000e+04
-6.051686328125000000e+04
-6.051663281250000000e+04
-6.051591015625000000e+04
-6.051543359375000000e+04
-6.051519921875000000e+04
-6.051356640625000000e+04
-6.051305468750000000e+04
-6.051289843750000000e+04
-6.051246875000000000e+04
-6.051232812500000000e+04
-6.051194140625000000e+04
-6.051143359375000000e+04
-6.051039843750000000e+04
-6.051023437500000000e+04
-6.050990625000000000e+04
-6.050943750000000000e+04
-6.050905859375000000e+04
-6.050877734375000000e+04
-6.050870703125000000e+04
-6.050861718750000000e+04
-6.050864453125000000e+04
-6.050866796875000000e+04
-6.050885156250000000e+04
-6.050889453125000000e+04
-6.050898437500000000e+04
-6.050902734375000000e+04
-6.050907031250000000e+04
-6.050919921875000000e+04
-6.050919921875000000e+04
-6.050875000000000000e+04
-6.050807421875000000e+04
-6.050781250000000000e+04
-6.050752343750000000e+04
-6.050789453125000000e+04
-6.050804687500000000e+04
-6.050821093750000000e+04
-6.050838281250000000e+04
-6.050872265625000000e+04
-6.050855468750000000e+04
-6.050830468750000000e+04
-6.050768359375000000e+04
-6.050546875000000000e+04
-6.050492968750000000e+04
-6.050435937500000000e+04
-6.049746484375000000e+04
-6.049625781250000000e+04
-6.049271093750000000e+04
-6.049247265625000000e+04
-6.049271484375000000e+04
-6.049467968750000000e+04
-6.049902343750000000e+04
-6.050001953125000000e+04
-6.050029687500000000e+04
-6.049933984375000000e+04
-6.049878125000000000e+04
-6.049677343750000000e+04
-6.049603515625000000e+04
-6.049426953125000000e+04
-6.049250781250000000e+04
-6.049139062500000000e+04
-6.049101171875000000e+04
-6.048951562500000000e+04
-6.048848437500000000e+04
-6.048786328125000000e+04
-6.048730078125000000e+04
-6.048681640625000000e+04
-6.048661328125000000e+04
-6.048591406250000000e+04
-6.048559375000000000e+04
-6.048332812500000000e+04
-6.048307812500000000e+04
-6.048209375000000000e+04
-6.048188281250000000e+04
-6.048189062500000000e+04
-6.048197265625000000e+04
-6.048276562500000000e+04
-6.048295312500000000e+04
-6.048376562500000000e+04
-6.048386328125000000e+04
-6.048398437500000000e+04
-6.048385937500000000e+04
-6.048345703125000000e+04
-6.048280859375000000e+04
-6.048228906250000000e+04
-6.048145312500000000e+04
-6.048086328125000000e+04
-6.048031640625000000e+04
-6.047980078125000000e+04
-6.047953906250000000e+04
-6.047792187500000000e+04
-6.047773046875000000e+04
-6.047705468750000000e+04
-6.047635937500000000e+04
-6.047610937500000000e+04
-6.047577343750000000e+04
-6.047579687500000000e+04
-6.047609765625000000e+04
-6.047617187500000000e+04
-6.047614843750000000e+04
-6.047604687500000000e+04
-6.047596484375000000e+04
-6.047585937500000000e+04
-6.047557031250000000e+04
-6.047346093750000000e+04
-6.047305859375000000e+04
-6.047250781250000000e+04
-6.047125390625000000e+04
-6.047100781250000000e+04
-6.047003125000000000e+04
-6.046984375000000000e+04
-6.046939453125000000e+04
-6.046909765625000000e+04
-6.046903515625000000e+04
-6.046902343750000000e+04
-6.046968359375000000e+04
-6.046970703125000000e+04
-6.046985156250000000e+04
-6.047009375000000000e+04
-6.047025781250000000e+04
-6.047049218750000000e+04
-6.047053906250000000e+04
-6.047060156250000000e+04
-6.047082031250000000e+04
-6.047071484375000000e+04
-6.047070703125000000e+04
-6.047058593750000000e+04
-6.047042968750000000e+04
-6.047012109375000000e+04
-6.046998046875000000e+04
-6.046946484375000000e+04
-6.046925000000000000e+04
-6.046886328125000000e+04
-6.046850390625000000e+04
-6.046856250000000000e+04
-6.046896875000000000e+04
-6.047064843750000000e+04
-6.047086328125000000e+04
-6.047102343750000000e+04
-6.047137890625000000e+04
-6.047154296875000000e+04
-6.047151953125000000e+04
-6.047139453125000000e+04
-6.047117968750000000e+04
-6.047032031250000000e+04
-6.046896875000000000e+04
-6.046729687500000000e+04
-6.046686328125000000e+04
-6.046603906250000000e+04
-6.046447656250000000e+04
-6.046410546875000000e+04
-6.046394921875000000e+04
-6.046375781250000000e+04
-6.046376171875000000e+04
-6.046378906250000000e+04
-6.046389453125000000e+04
-6.046414453125000000e+04
-6.046450390625000000e+04
-6.046532031250000000e+04
-6.046558203125000000e+04
-6.046614843750000000e+04
-6.046650390625000000e+04
-6.046650000000000000e+04
-6.046637890625000000e+04
-6.046599218750000000e+04
-6.046589062500000000e+04
-6.046528125000000000e+04
-6.046518359375000000e+04
-6.046450390625000000e+04
-6.046370703125000000e+04
-6.046216796875000000e+04
-6.046133203125000000e+04
-6.046033203125000000e+04
-6.045823046875000000e+04
-6.045483593750000000e+04
-6.045340234375000000e+04
-6.045192578125000000e+04
-6.045208203125000000e+04
-6.045238281250000000e+04
-6.045270703125000000e+04
-6.045576171875000000e+04
-6.045635937500000000e+04
-6.045880468750000000e+04
-6.046089453125000000e+04
-6.046214843750000000e+04
-6.046306640625000000e+04
-6.046320703125000000e+04
-6.046312109375000000e+04
-6.046280859375000000e+04
-6.046262890625000000e+04
-6.045648046875000000e+04
-6.045557812500000000e+04
-6.045475390625000000e+04
-6.045474609375000000e+04
-6.045455859375000000e+04
-6.045500000000000000e+04
-6.045529687500000000e+04
-6.045622265625000000e+04
-6.045623828125000000e+04
-6.045684765625000000e+04
-6.045684765625000000e+04
-6.045730859375000000e+04
-6.045715234375000000e+04
-6.045682812500000000e+04
-6.045628125000000000e+04
-6.045563281250000000e+04
-6.045550000000000000e+04
-6.045529296875000000e+04
-6.045509375000000000e+04
-6.045467187500000000e+04
-6.045392578125000000e+04
-6.045383593750000000e+04
-6.045370703125000000e+04
-6.045355859375000000e+04
-6.045371484375000000e+04
-6.045377343750000000e+04
-6.045378515625000000e+04
-6.045357031250000000e+04
-6.045345703125000000e+04
-6.045339453125000000e+04
-6.045311718750000000e+04
-6.045296093750000000e+04
-6.045178906250000000e+04
-6.045153906250000000e+04
-6.045126171875000000e+04
-6.045096093750000000e+04
-6.045066015625000000e+04
-6.044942968750000000e+04
-6.045071875000000000e+04
-6.045198046875000000e+04
-6.045257421875000000e+04
-6.045316015625000000e+04
-6.045349218750000000e+04
-6.045363671875000000e+04
-6.045371484375000000e+04
-6.045226953125000000e+04
-6.045118750000000000e+04
-6.044987109375000000e+04
-6.044955078125000000e+04
-6.044856640625000000e+04
-6.044805859375000000e+04
-6.044774218750000000e+04
-6.044774609375000000e+04
-6.044767968750000000e+04
-6.044813671875000000e+04
-6.044823437500000000e+04
-6.044833203125000000e+04
-6.044844140625000000e+04
-6.044848828125000000e+04
-6.044867968750000000e+04
-6.044880078125000000e+04
-6.044911328125000000e+04
-6.044941796875000000e+04
-6.044954296875000000e+04
-6.044949609375000000e+04
-6.044864062500000000e+04
-6.044807031250000000e+04
-6.044700781250000000e+04
-6.044651953125000000e+04
-6.044622265625000000e+04
-6.044464843750000000e+04
-6.044439843750000000e+04
-6.044372265625000000e+04
-6.044318359375000000e+04
-6.044308593750000000e+04
-6.044272265625000000e+04
-6.044260937500000000e+04
-6.044255859375000000e+04
-6.044283593750000000e+04
-6.044305468750000000e+04
-6.044385546875000000e+04
-6.044484375000000000e+04
-6.044550781250000000e+04
-6.044567968750000000e+04
-6.044629296875000000e+04
-6.044642968750000000e+04
-6.044646093750000000e+04
-6.044651562500000000e+04
-6.044639062500000000e+04
-6.044610937500000000e+04
-6.044632421875000000e+04
-6.044644921875000000e+04
-6.044660156250000000e+04
-6.044656250000000000e+04
-6.044658984375000000e+04
-6.044657421875000000e+04
-6.044632812500000000e+04
-6.044599609375000000e+04
-6.044523828125000000e+04
-6.044457031250000000e+04
-6.044424609375000000e+04
-6.044403515625000000e+04
-6.044389453125000000e+04
-6.044391015625000000e+04
-6.044378515625000000e+04
-6.044376171875000000e+04
-6.044376562500000000e+04
-6.044376953125000000e+04
-6.044341015625000000e+04
-6.044338281250000000e+04
-6.044335546875000000e+04
-6.044298046875000000e+04
-6.044282421875000000e+04
-6.044282812500000000e+04
-6.044256640625000000e+04
-6.044258984375000000e+04
-6.044283203125000000e+04
-6.044361328125000000e+04
-6.044455468750000000e+04
-6.044560937500000000e+04
-6.044586718750000000e+04
-6.044697265625000000e+04
-6.044724609375000000e+04
-6.044750390625000000e+04
-6.044796484375000000e+04
-6.044794921875000000e+04
-6.044801953125000000e+04
-6.044778515625000000e+04
-6.044767187500000000e+04
-6.044750390625000000e+04
-6.044716015625000000e+04
-6.044703515625000000e+04
-6.044686328125000000e+04
-6.044649218750000000e+04
-6.044610546875000000e+04
-6.044593359375000000e+04
-6.044552734375000000e+04
-6.044535546875000000e+04
-6.044526953125000000e+04
-6.044488281250000000e+04
-6.044453906250000000e+04
-6.044411718750000000e+04
-6.044367578125000000e+04
-6.044337890625000000e+04
-6.044269531250000000e+04
-6.044236328125000000e+04
-6.044208984375000000e+04
-6.044193750000000000e+04
-6.044293750000000000e+04
-6.044302734375000000e+04
-6.044318750000000000e+04
-6.044312890625000000e+04
-6.044325781250000000e+04
-6.044325781250000000e+04
-6.044338281250000000e+04
-6.044352343750000000e+04
-6.044375390625000000e+04
-6.044379687500000000e+04
-6.044448046875000000e+04
-6.044504687500000000e+04
-6.044531640625000000e+04
-6.044676953125000000e+04
-6.044807812500000000e+04
-6.044838281250000000e+04
-6.044857031250000000e+04
-6.044859375000000000e+04
-6.044879296875000000e+04
-6.044879687500000000e+04
-6.044901562500000000e+04
-6.044919140625000000e+04
-6.045045312500000000e+04
-6.045065625000000000e+04
-6.045080859375000000e+04
-6.045090234375000000e+04
-6.045112109375000000e+04
-6.045092968750000000e+04
-6.045090234375000000e+04
-6.045080078125000000e+04
-6.045029296875000000e+04
-6.044985156250000000e+04
-6.044955078125000000e+04
-6.044844531250000000e+04
-6.044866406250000000e+04
-6.044857812500000000e+04
-6.044895703125000000e+04
-6.044915234375000000e+04
-6.044925390625000000e+04
-6.044934765625000000e+04
-6.044944140625000000e+04
-6.044982421875000000e+04
-6.045012109375000000e+04
-6.045016015625000000e+04
-6.045031250000000000e+04
-6.045045312500000000e+04
-6.045047656250000000e+04
-6.045059375000000000e+04
-6.045061328125000000e+04
-6.045036718750000000e+04
-6.045039062500000000e+04
-6.044975781250000000e+04
-6.044977343750000000e+04
-6.044926562500000000e+04
-6.044926171875000000e+04
-6.044913281250000000e+04
-6.044913281250000000e+04
-6.044919140625000000e+04
-6.044924218750000000e+04
-6.044942187500000000e+04
-6.044959375000000000e+04
-6.044964062500000000e+04
-6.044960546875000000e+04
-6.044961718750000000e+04
-6.044960156250000000e+04
-6.045057031250000000e+04
-6.045069140625000000e+04
-6.045075390625000000e+04
-6.045087500000000000e+04
-6.045076171875000000e+04
-6.045061328125000000e+04
-6.045025390625000000e+04
-6.044887890625000000e+04
-6.044862109375000000e+04
-6.044798046875000000e+04
-6.044768359375000000e+04
-6.044714453125000000e+04
-6.044648437500000000e+04
-6.044555078125000000e+04
-6.044556640625000000e+04
-6.044605078125000000e+04
-6.044621093750000000e+04
-6.044696875000000000e+04
-6.044742968750000000e+04
-6.044761328125000000e+04
-6.044808593750000000e+04
-6.044815234375000000e+04
-6.044861718750000000e+04
-6.044897265625000000e+04
-6.044903125000000000e+04
-6.044909765625000000e+04
-6.044910546875000000e+04
-6.044905078125000000e+04
-6.044900390625000000e+04
-6.044887500000000000e+04
-6.044892187500000000e+04
-6.044888671875000000e+04
-6.044822265625000000e+04
-6.044799218750000000e+04
-6.044658593750000000e+04
-6.044548828125000000e+04
-6.044511328125000000e+04
-6.044492578125000000e+04
-6.044514453125000000e+04
-6.044619921875000000e+04
-6.044703906250000000e+04
-6.044723046875000000e+04
-6.044753906250000000e+04
-6.044776562500000000e+04
-6.044778515625000000e+04
-6.044770703125000000e+04
-6.044773828125000000e+04
-6.044761718750000000e+04
-6.044744140625000000e+04
-6.044732812500000000e+04
-6.044720312500000000e+04
-6.044676562500000000e+04
-6.044595703125000000e+04
-6.044578906250000000e+04
-6.044558203125000000e+04
-6.044519140625000000e+04
-6.044518750000000000e+04
-6.044430078125000000e+04
-6.044432812500000000e+04
-6.044380078125000000e+04
-6.044362109375000000e+04
-6.044348437500000000e+04
-6.044334375000000000e+04
-6.044339453125000000e+04
-6.044362109375000000e+04
-6.044365234375000000e+04
-6.044423046875000000e+04
-6.044446875000000000e+04
-6.044443750000000000e+04
-6.044408593750000000e+04
-6.044392187500000000e+04
-6.044371484375000000e+04
-6.044350000000000000e+04
-6.044314062500000000e+04
-6.044302343750000000e+04
-6.044264843750000000e+04
-6.044239843750000000e+04
-6.044220703125000000e+04
-6.044238281250000000e+04
-6.044263671875000000e+04
-6.044310937500000000e+04
-6.044317968750000000e+04
-6.044321093750000000e+04
-6.044316796875000000e+04
-6.044301171875000000e+04
-6.044250000000000000e+04
-6.044233203125000000e+04
-6.044152734375000000e+04
-6.044133984375000000e+04
-6.044084375000000000e+04
-6.044062890625000000e+04
-6.044028125000000000e+04
-6.044034765625000000e+04
-6.044039453125000000e+04
-6.044047656250000000e+04
-6.044085937500000000e+04
-6.044199218750000000e+04
-6.044223828125000000e+04
-6.044239062500000000e+04
-6.044282421875000000e+04
-6.044277734375000000e+04
-6.044278906250000000e+04
-6.044266015625000000e+04
-6.044242578125000000e+04
-6.044224218750000000e+04
-6.044156640625000000e+04
-6.044111328125000000e+04
-6.044087890625000000e+04
-6.043943750000000000e+04
-6.043927343750000000e+04
-6.043921093750000000e+04
-6.043919921875000000e+04
-6.043935156250000000e+04
-6.043942968750000000e+04
-6.043962109375000000e+04
-6.043980859375000000e+04
-6.044077734375000000e+04
-6.044123828125000000e+04
-6.044084765625000000e+04
-6.043966015625000000e+04
-6.043924218750000000e+04
-6.043808593750000000e+04
-6.043748437500000000e+04
-6.043644921875000000e+04
-6.043564843750000000e+04
-6.043569921875000000e+04
-6.043556640625000000e+04
-6.043583203125000000e+04
-6.043585156250000000e+04
-6.043558203125000000e+04
-6.043502343750000000e+04
-6.043405078125000000e+04
-6.043371484375000000e+04
-6.043420703125000000e+04
-6.043446875000000000e+04
-6.043585156250000000e+04
-6.043760156250000000e+04
-6.043785937500000000e+04
-6.044012890625000000e+04
-6.044035156250000000e+04
-6.044119921875000000e+04
-6.044173437500000000e+04
-6.044300000000000000e+04
-6.044328515625000000e+04
-6.044326562500000000e+04
-6.044315625000000000e+04
-6.044305078125000000e+04
-6.044199609375000000e+04
-6.044075781250000000e+04
-6.044047265625000000e+04
-6.044013281250000000e+04
-6.043783593750000000e+04
-6.043715625000000000e+04
-6.043617578125000000e+04
-6.043608593750000000e+04
-6.043606640625000000e+04
-6.043664843750000000e+04
-6.043694140625000000e+04
-6.043761328125000000e+04
-6.044192187500000000e+04
-6.044246484375000000e+04
-6.044292187500000000e+04
-6.044310937500000000e+04
-6.044310937500000000e+04
-6.044279296875000000e+04
-6.044111328125000000e+04
-6.044080468750000000e+04
-6.043851562500000000e+04
-6.043812109375000000e+04
-6.043736328125000000e+04
-6.043488281250000000e+04
-6.043467968750000000e+04
-6.043482031250000000e+04
-6.043621093750000000e+04
-6.043662500000000000e+04
-6.043678515625000000e+04
-6.043925390625000000e+04
-6.043966406250000000e+04
-6.044051953125000000e+04
-6.044069531250000000e+04
-6.044083984375000000e+04
-6.044124218750000000e+04
-6.044162890625000000e+04
-6.044185937500000000e+04
-6.044192187500000000e+04
-6.044214062500000000e+04
-6.044212890625000000e+04
-6.044211718750000000e+04
-6.044211718750000000e+04
-6.044191015625000000e+04
-6.044187890625000000e+04
-6.044185546875000000e+04
-6.044166015625000000e+04
-6.044131640625000000e+04
-6.044121484375000000e+04
-6.044082421875000000e+04
-6.044002734375000000e+04
-6.043985937500000000e+04
-6.043930078125000000e+04
-6.043828515625000000e+04
-6.043809765625000000e+04
-6.043788281250000000e+04
-6.043767968750000000e+04
-6.043793750000000000e+04
-6.043791406250000000e+04
-6.043814062500000000e+04
-6.043837500000000000e+04
-6.043897265625000000e+04
-6.043983203125000000e+04
-6.043988281250000000e+04
-6.044041015625000000e+04
-6.044062109375000000e+04
-6.044074609375000000e+04
-6.044091015625000000e+04
-6.044108203125000000e+04
-6.044122265625000000e+04
-6.044165234375000000e+04
-6.044182421875000000e+04
-6.044185937500000000e+04
-6.044203125000000000e+04
-6.044217187500000000e+04
-6.044217968750000000e+04
-6.044230078125000000e+04
-6.044224609375000000e+04
-6.044236718750000000e+04
-6.044223828125000000e+04
-6.044235937500000000e+04
-6.044224218750000000e+04
-6.044193750000000000e+04
-6.044206640625000000e+04
-6.044184375000000000e+04
-6.044176953125000000e+04
-6.044175390625000000e+04
-6.044175000000000000e+04
-6.044178515625000000e+04
-6.044191015625000000e+04
-6.044223046875000000e+04
-6.044217578125000000e+04
-6.044228125000000000e+04
-6.044250781250000000e+04
-6.044247656250000000e+04
-6.044213671875000000e+04
-6.044197265625000000e+04
-6.044162109375000000e+04
-6.044097265625000000e+04
-6.044093750000000000e+04
-6.044076171875000000e+04
-6.044098046875000000e+04
-6.044195312500000000e+04
-6.044227734375000000e+04
-6.044408593750000000e+04
-6.044441015625000000e+04
-6.044542968750000000e+04
-6.044570312500000000e+04
-6.044605468750000000e+04
-6.044726171875000000e+04
-6.044780859375000000e+04
-6.044789843750000000e+04
-6.044787109375000000e+04
-6.044778515625000000e+04
-6.044771875000000000e+04
-6.044735546875000000e+04
-6.044717578125000000e+04
-6.044644531250000000e+04
-6.044555859375000000e+04
-6.044535546875000000e+04
-6.044392578125000000e+04
-6.044310156250000000e+04
-6.044294531250000000e+04
-6.044181640625000000e+04
-6.044164843750000000e+04
-6.043974218750000000e+04
-6.043867578125000000e+04
-6.043776562500000000e+04
-6.043758984375000000e+04
-6.043740234375000000e+04
-6.043735937500000000e+04
-6.043739453125000000e+04
-6.043932812500000000e+04
-6.044024218750000000e+04
-6.044060546875000000e+04
-6.044088281250000000e+04
-6.044145312500000000e+04
-6.044157421875000000e+04
-6.044164843750000000e+04
-6.044166796875000000e+04
-6.044133593750000000e+04
-6.044066406250000000e+04
-6.044044531250000000e+04
-6.044017187500000000e+04
-6.043873437500000000e+04
-6.043775000000000000e+04
-6.043638281250000000e+04
-6.043558984375000000e+04
-6.043498437500000000e+04
-6.043448437500000000e+04
-6.043412500000000000e+04
-6.043369140625000000e+04
-6.043354296875000000e+04
-6.043365234375000000e+04
-6.043403125000000000e+04
-6.043457031250000000e+04
-6.043493750000000000e+04
-6.043604687500000000e+04
-6.043776562500000000e+04
-6.043893750000000000e+04
-6.043925390625000000e+04
-6.044016406250000000e+04
-6.044202734375000000e+04
-6.044233593750000000e+04
-6.044241406250000000e+04
-6.044247265625000000e+04
-6.044267187500000000e+04
-6.044306640625000000e+04
-6.044330078125000000e+04
-6.044334765625000000e+04
-6.044331250000000000e+04
-6.044285546875000000e+04
-6.044181640625000000e+04
-6.044127734375000000e+04
-6.044071484375000000e+04
-6.043868359375000000e+04
-6.043784765625000000e+04
-6.043600000000000000e+04
-6.043593359375000000e+04
-6.043584375000000000e+04
-6.043644921875000000e+04
-6.043749218750000000e+04
-6.043916015625000000e+04
-6.043926171875000000e+04
-6.043979296875000000e+04
-6.044000781250000000e+04
-6.044006250000000000e+04
-6.043991796875000000e+04
-6.043975000000000000e+04
-6.043871093750000000e+04
-6.043757421875000000e+04
-6.043579296875000000e+04
-6.043546875000000000e+04
-6.043397656250000000e+04
-6.043317968750000000e+04
-6.043235156250000000e+04
-6.043118750000000000e+04
-6.043114453125000000e+04
-6.043161718750000000e+04
-6.043178125000000000e+04
-6.043446484375000000e+04
-6.043489062500000000e+04
-6.043738281250000000e+04
-6.043808593750000000e+04
-6.043920703125000000e+04
-6.044029296875000000e+04
-6.044108593750000000e+04
-6.044121875000000000e+04
-6.044013671875000000e+04
-6.043865234375000000e+04
-6.043848046875000000e+04
-6.043796875000000000e+04
-6.043750000000000000e+04
-6.043722265625000000e+04
-6.043707812500000000e+04
-6.043666015625000000e+04
-6.043644921875000000e+04
-6.043622265625000000e+04
-6.043583984375000000e+04
-6.043507421875000000e+04
-6.043441015625000000e+04
-6.043381640625000000e+04
-6.043326953125000000e+04
-6.043319921875000000e+04
-6.043308984375000000e+04
-6.043312109375000000e+04
-6.043293750000000000e+04
-6.043301562500000000e+04
-6.043302734375000000e+04
-6.043296484375000000e+04
-6.043301171875000000e+04
-6.043314453125000000e+04
-6.043321875000000000e+04
-6.043335937500000000e+04
-6.043371093750000000e+04
-6.043402734375000000e+04
-6.043432421875000000e+04
-6.043460937500000000e+04
-6.043585156250000000e+04
-6.043653125000000000e+04
-6.043658203125000000e+04
-6.043690234375000000e+04
-6.043702343750000000e+04
-6.043707421875000000e+04
-6.043731250000000000e+04
-6.043718750000000000e+04
-6.043719140625000000e+04
-6.043708984375000000e+04
-6.043708593750000000e+04
-6.043689453125000000e+04
-6.043710156250000000e+04
-6.043698046875000000e+04
-6.043694140625000000e+04
-6.043698828125000000e+04
-6.043714062500000000e+04
-6.043723828125000000e+04
-6.043737500000000000e+04
-6.043773437500000000e+04
-6.043809765625000000e+04
-6.043859375000000000e+04
-6.043904687500000000e+04
-6.044049609375000000e+04
-6.044133593750000000e+04
-6.044183203125000000e+04
-6.044216406250000000e+04
-6.044244140625000000e+04
-6.044262500000000000e+04
-6.044307031250000000e+04
-6.044417187500000000e+04
-6.044417187500000000e+04
-6.044420703125000000e+04
-6.044395312500000000e+04
-6.044373046875000000e+04
-6.044319140625000000e+04
-6.044296484375000000e+04
-6.044282812500000000e+04
-6.044250000000000000e+04
-6.044216796875000000e+04
-6.044151562500000000e+04
-6.044139062500000000e+04
-6.044073828125000000e+04
-6.043964062500000000e+04
-6.043898046875000000e+04
-6.043867187500000000e+04
-6.043750781250000000e+04
-6.043720312500000000e+04
-6.043727343750000000e+04
-6.043730078125000000e+04
-6.043735546875000000e+04
-6.043797265625000000e+04
-6.043838671875000000e+04
-6.044014843750000000e+04
-6.044113671875000000e+04
-6.044242968750000000e+04
-6.044253515625000000e+04
-6.044250000000000000e+04
-6.044227343750000000e+04
-6.044221093750000000e+04
-6.044196484375000000e+04
-6.044173437500000000e+04
-6.044151953125000000e+04
-6.044145312500000000e+04
-6.044112500000000000e+04
-6.044103906250000000e+04
-6.044116015625000000e+04
-6.044177734375000000e+04
-6.044212109375000000e+04
-6.044249609375000000e+04
-6.044295312500000000e+04
-6.044363281250000000e+04
-6.044367578125000000e+04
-6.044232031250000000e+04
-6.044225781250000000e+04
-6.044212109375000000e+04
-6.044200390625000000e+04
-6.044184765625000000e+04
-6.044227734375000000e+04
-6.044234765625000000e+04
-6.044259765625000000e+04
-6.044291796875000000e+04
-6.044285937500000000e+04
-6.044281250000000000e+04
-6.044242578125000000e+04
-6.044216796875000000e+04
-6.044204687500000000e+04
-6.044141015625000000e+04
-6.044138281250000000e+04
-6.044110546875000000e+04
-6.044132031250000000e+04
-6.044139062500000000e+04
-6.044144140625000000e+04
-6.044155468750000000e+04
-6.044163671875000000e+04
-6.044146093750000000e+04
-6.044133984375000000e+04
-6.043972656250000000e+04
-6.043921875000000000e+04
-6.043823437500000000e+04
-6.043755468750000000e+04
-6.043763671875000000e+04
