4.594325065612792969e+00 4.493965148925781250e+00 6.486301422119140625e+00 4.493965148925781250e+00 1.477834606170654297e+01 -2.368544816970825195e+00 6.486301422119140625e+00 -2.368544816970825195e+00 -1.014223384857177734e+01
7.900690555572509766e+00 5.001607418060302734e+00 6.556658744812011719e+00 5.001607418060302734e+00 1.658745765686035156e+01 -2.246540546417236328e+00 6.556658744812011719e+00 -2.246540546417236328e+00 -8.032618522644042969e+00
1.946487808227539062e+01 6.492823600769042969e+00 6.799042701721191406e+00 6.492823600769042969e+00 2.358497619628906250e+01 -1.824607133865356445e+00 6.799042701721191406e+00 -1.824607133865356445e+00 -4.399916231632232666e-01
3.275532531738281250e+01 7.957955837249755859e+00 7.243851661682128906e+00 7.957955837249755859e+00 3.235409164428710938e+01 -1.333798766136169434e+00 7.243851661682128906e+00 -1.333798766136169434e+00 8.565633773803710938e+00
7.559439849853515625e+01 1.285458278656005859e+01 9.709699630737304688e+00 1.285458278656005859e+01 6.410961914062500000e+01 -1.301727771759033203e+00 9.709699630737304688e+00 -1.301727771759033203e+00 4.052548599243164062e+01
8.681270599365234375e+01 1.574008941650390625e+01 1.042490291595458984e+01 1.574008941650390625e+01 7.447406005859375000e+01 -4.182143688201904297e+00 1.042490291595458984e+01 -4.182143688201904297e+00 5.328156280517578125e+01
8.133901977539062500e+01 1.643379402160644531e+01 9.770997047424316406e+00 1.643379402160644531e+01 7.199933624267578125e+01 -7.238436222076416016e+00 9.770997047424316406e+00 -7.238436222076416016e+00 5.394302749633789062e+01
7.904489135742187500e+01 1.638057708740234375e+01 9.554199218750000000e+00 1.638057708740234375e+01 7.061499023437500000e+01 -7.842811584472656250e+00 9.554199218750000000e+00 -7.842811584472656250e+00 5.321887969970703125e+01
7.031723785400390625e+01 1.580488872528076172e+01 8.815736770629882812e+00 1.580488872528076172e+01 6.514804077148437500e+01 -9.539487838745117188e+00 8.815736770629882812e+00 -9.539487838745117188e+00 4.964949798583984375e+01
5.975353622436523438e+01 1.461584186553955078e+01 8.061631202697753906e+00 1.461584186553955078e+01 5.831725311279296875e+01 -1.096101570129394531e+01 8.061631202697753906e+00 -1.096101570129394531e+01 4.444646453857421875e+01
5.593886566162109375e+01 1.411192226409912109e+01 7.846417903900146484e+00 1.411192226409912109e+01 5.583156967163085938e+01 -1.137946987152099609e+01 7.846417903900146484e+00 -1.137946987152099609e+01 4.240980911254882812e+01
4.814223480224609375e+01 1.295357513427734375e+01 7.411382675170898438e+00 1.295357513427734375e+01 5.077577972412109375e+01 -1.207141494750976562e+01 7.411382675170898438e+00 -1.207141494750976562e+01 3.809291839599609375e+01
-3.227199018001556396e-01 3.250576257705688477e+00 5.142761707305908203e+00 3.250576257705688477e+00 2.107747650146484375e+01 -1.358308124542236328e+01 5.142761707305908203e+00 -1.358308124542236328e+01 6.651265621185302734e+00
-1.072433567047119141e+01 3.624912202358245850e-01 3.798027992248535156e+00 3.624912202358245850e-01 1.603318023681640625e+01 -1.321130371093750000e+01 3.798027992248535156e+00 -1.321130371093750000e+01 -1.141400933265686035e+00
-1.529241657257080078e+01 -1.075777649879455566e+00 2.700258016586303711e+00 -1.075777649879455566e+00 1.426669979095458984e+01 -1.289599990844726562e+01 2.700258016586303711e+00 -1.289599990844726562e+01 -4.607153415679931641e+00
-1.649534225463867188e+01 -1.516105651855468750e+00 2.288926839828491211e+00 -1.516105651855468750e+00 1.386409950256347656e+01 -1.281781005859375000e+01 2.288926839828491211e+00 -1.281781005859375000e+01 -5.535912036895751953e+00
-1.761458587646484375e+01 -1.929277300834655762e+00 1.853837490081787109e+00 -1.929277300834655762e+00 1.354890346527099609e+01 -1.276134109497070312e+01 1.853837490081787109e+00 -1.276134109497070312e+01 -6.440291881561279297e+00
-1.952074432373046875e+01 -2.650564432144165039e+00 9.345804452896118164e-01 -2.650564432144165039e+00 1.313502979278564453e+01 -1.261965560913085938e+01 9.345804452896118164e-01 -1.261965560913085938e+01 -7.862279415130615234e+00
-2.030181503295898438e+01 -2.965819835662841797e+00 4.379196763038635254e-01 -2.965819835662841797e+00 1.303955173492431641e+01 -1.258620834350585938e+01 4.379196763038635254e-01 -1.258620834350585938e+01 -8.446990966796875000e+00
-2.100548362731933594e+01 -3.271116018295288086e+00 -5.939307436347007751e-02 -3.271116018295288086e+00 1.304011535644531250e+01 -1.256428050994873047e+01 -5.939307436347007751e-02 -1.256428050994873047e+01 -8.945868492126464844e+00
-2.164392662048339844e+01 -3.559975862503051758e+00 -5.716301798820495605e-01 -3.559975862503051758e+00 1.305650329589843750e+01 -1.254409694671630859e+01 -5.716301798820495605e-01 -1.254409694671630859e+01 -9.362057685852050781e+00
-2.380600357055664062e+01 -4.754832267761230469e+00 -3.061902284622192383e+00 -4.754832267761230469e+00 1.401793575286865234e+01 -1.272562599182128906e+01 -3.061902284622192383e+00 -1.272562599182128906e+01 -1.073879241943359375e+01
-2.406336593627929688e+01 -4.941633701324462891e+00 -3.518999576568603516e+00 -4.941633701324462891e+00 1.434628200531005859e+01 -1.279259872436523438e+01 -3.518999576568603516e+00 -1.279259872436523438e+01 -1.084474945068359375e+01
-2.449419403076171875e+01 -5.229952335357666016e+00 -4.345454216003417969e+00 -5.229952335357666016e+00 1.501844310760498047e+01 -1.306644535064697266e+01 -4.345454216003417969e+00 -1.306644535064697266e+01 -1.105743503570556641e+01
-2.624837112426757812e+01 -3.458610773086547852e+00 -6.215224266052246094e+00 -3.458610773086547852e+00 2.040304946899414062e+01 -1.545941448211669922e+01 -6.215224266052246094e+00 -1.545941448211669922e+01 -1.260724353790283203e+01
-2.629560279846191406e+01 -3.122868537902832031e+00 -6.110786914825439453e+00 -3.122868537902832031e+00 2.080262374877929688e+01 -1.551298236846923828e+01 -6.110786914825439453e+00 -1.551298236846923828e+01 -1.279459095001220703e+01
-2.629681587219238281e+01 -2.765992164611816406e+00 -5.994286537170410156e+00 -2.765992164611816406e+00 2.127550888061523438e+01 -1.555281066894531250e+01 -5.994286537170410156e+00 -1.555281066894531250e+01 -1.297812938690185547e+01
-2.576529121398925781e+01 -1.294858604669570923e-01 -4.969696521759033203e+00 -1.294858604669570923e-01 2.438987541198730469e+01 -1.529124546051025391e+01 -4.969696521759033203e+00 -1.529124546051025391e+01 -1.448436450958251953e+01
-2.557355499267578125e+01 2.603550255298614502e-01 -4.877600669860839844e+00 2.603550255298614502e-01 2.476166152954101562e+01 -1.518193435668945312e+01 -4.877600669860839844e+00 -1.518193435668945312e+01 -1.465352058410644531e+01
-2.492319488525390625e+01 1.395668864250183105e+00 -4.695741176605224609e+00 1.395668864250183105e+00 2.593953132629394531e+01 -1.475223350524902344e+01 -4.695741176605224609e+00 -1.475223350524902344e+01 -1.520244503021240234e+01
-2.463860130310058594e+01 1.730184793472290039e+00 -4.675433158874511719e+00 1.730184793472290039e+00 2.636627006530761719e+01 -1.459910106658935547e+01 -4.675433158874511719e+00 -1.459910106658935547e+01 -1.537197589874267578e+01
-2.353986549377441406e+01 2.620370388031005859e+00 -4.695806503295898438e+00 2.620370388031005859e+00 2.756287765502929688e+01 -1.409875392913818359e+01 -4.695806503295898438e+00 -1.409875392913818359e+01 -1.569892024993896484e+01
-2.309554290771484375e+01 2.898292541503906250e+00 -4.755778789520263672e+00 2.898292541503906250e+00 2.797334861755371094e+01 -1.391466999053955078e+01 -4.755778789520263672e+00 -1.391466999053955078e+01 -1.573313236236572266e+01
-2.257635498046875000e+01 3.144835710525512695e+00 -4.847708702087402344e+00 3.144835710525512695e+00 2.834124183654785156e+01 -1.371396827697753906e+01 -4.847708702087402344e+00 -1.371396827697753906e+01 -1.573257541656494141e+01
-2.207249832153320312e+01 3.364851474761962891e+00 -4.968130111694335938e+00 3.364851474761962891e+00 2.867137145996093750e+01 -1.353057956695556641e+01 -4.968130111694335938e+00 -1.353057956695556641e+01 -1.569221878051757812e+01
-2.147856903076171875e+01 3.580516815185546875e+00 -5.080274581909179688e+00 3.580516815185546875e+00 2.898499679565429688e+01 -1.334372329711914062e+01 -5.080274581909179688e+00 -1.334372329711914062e+01 -1.560388660430908203e+01
-2.018845748901367188e+01 3.927169322967529297e+00 -5.365375995635986328e+00 3.927169322967529297e+00 2.949105644226074219e+01 -1.296015834808349609e+01 -5.365375995635986328e+00 -1.296015834808349609e+01 -1.531537532806396484e+01
-1.858203506469726562e+01 4.185671806335449219e+00 -5.770964622497558594e+00 4.185671806335449219e+00 3.006895065307617188e+01 -1.261164093017578125e+01 -5.770964622497558594e+00 -1.261164093017578125e+01 -1.469711208343505859e+01
-1.693460845947265625e+01 4.358479022979736328e+00 -6.115232944488525391e+00 4.358479022979736328e+00 3.064333724975585938e+01 -1.227501869201660156e+01 -6.115232944488525391e+00 -1.227501869201660156e+01 -1.388975238800048828e+01
-1.520850753784179688e+01 4.374050140380859375e+00 -6.498214721679687500e+00 4.374050140380859375e+00 3.130434608459472656e+01 -1.191291904449462891e+01 -6.498214721679687500e+00 -1.191291904449462891e+01 -1.286537933349609375e+01
-1.430693626403808594e+01 4.369513034820556641e+00 -6.692394733428955078e+00 4.369513034820556641e+00 3.164112854003906250e+01 -1.173989009857177734e+01 -6.692394733428955078e+00 -1.173989009857177734e+01 -1.223394393920898438e+01
-1.224969959259033203e+01 4.250401020050048828e+00 -7.090780258178710938e+00 4.250401020050048828e+00 3.247355270385742188e+01 -1.144498634338378906e+01 -7.090780258178710938e+00 -1.144498634338378906e+01 -1.070545959472656250e+01
-1.122351646423339844e+01 4.142644405364990234e+00 -7.268813133239746094e+00 4.142644405364990234e+00 3.285188674926757812e+01 -1.129035758972167969e+01 -7.268813133239746094e+00 -1.129035758972167969e+01 -9.849171638488769531e+00
-9.085982322692871094e+00 3.823287963867187500e+00 -7.662473201751708984e+00 3.823287963867187500e+00 3.375752258300781250e+01 -1.101429748535156250e+01 -7.662473201751708984e+00 -1.101429748535156250e+01 -7.936399459838867188e+00
-7.940254688262939453e+00 3.613380432128906250e+00 -7.859371185302734375e+00 3.613380432128906250e+00 3.433227920532226562e+01 -1.090255546569824219e+01 -7.859371185302734375e+00 -1.090255546569824219e+01 -6.848446846008300781e+00
-5.662788391113281250e+00 3.125330448150634766e+00 -8.255928993225097656e+00 3.125330448150634766e+00 3.565911102294921875e+01 -1.073965072631835938e+01 -8.255928993225097656e+00 -1.073965072631835938e+01 -4.529379844665527344e+00
2.005118846893310547e+00 1.023424863815307617e+00 -9.430270195007324219e+00 1.023424863815307617e+00 4.118037796020507812e+01 -1.071131134033203125e+01 -9.430270195007324219e+00 -1.071131134033203125e+01 3.802367687225341797e+00
4.808504581451416016e+00 1.348548978567123413e-01 -9.845594406127929688e+00 1.348548978567123413e-01 4.353947448730468750e+01 -1.082686805725097656e+01 -9.845594406127929688e+00 -1.082686805725097656e+01 6.917924880981445312e+00
7.565383911132812500e+00 -7.612544894218444824e-01 -1.025711727142333984e+01 -7.612544894218444824e-01 4.603594589233398438e+01 -1.097574901580810547e+01 -1.025711727142333984e+01 -1.097574901580810547e+01 1.005866527557373047e+01
1.180918693542480469e+01 -2.149519920349121094e+00 -1.087417125701904297e+01 -2.149519920349121094e+00 4.990556716918945312e+01 -1.119386100769042969e+01 -1.087417125701904297e+01 -1.119386100769042969e+01 1.485682868957519531e+01
1.826762580871582031e+01 -4.775290966033935547e+00 -1.194806385040283203e+01 -4.775290966033935547e+00 5.632409667968750000e+01 -1.131033039093017578e+01 -1.194806385040283203e+01 -1.131033039093017578e+01 2.232762336730957031e+01
2.053186225891113281e+01 -5.809303760528564453e+00 -1.230852985382080078e+01 -5.809303760528564453e+00 5.885540390014648438e+01 -1.107628345489501953e+01 -1.230852985382080078e+01 -1.107628345489501953e+01 2.511111831665039062e+01
2.734597969055175781e+01 -7.841133117675781250e+00 -1.352672863006591797e+01 -7.841133117675781250e+00 6.735836791992187500e+01 -8.637604713439941406e+00 -1.352672863006591797e+01 -8.637604713439941406e+00 3.481641006469726562e+01
2.815480041503906250e+01 -7.965325832366943359e+00 -1.370020198822021484e+01 -7.965325832366943359e+00 6.847219848632812500e+01 -8.240901947021484375e+00 -1.370020198822021484e+01 -8.240901947021484375e+00 3.630054092407226562e+01
2.895088958740234375e+01 -8.053399085998535156e+00 -1.385826492309570312e+01 -8.053399085998535156e+00 6.950614166259765625e+01 -7.860535144805908203e+00 -1.385826492309570312e+01 -7.860535144805908203e+00 3.778094100952148438e+01
2.966389656066894531e+01 -8.144867897033691406e+00 -1.399578857421875000e+01 -8.144867897033691406e+00 7.048471069335937500e+01 -7.453962326049804688e+00 -1.399578857421875000e+01 -7.453962326049804688e+00 3.924906921386718750e+01
3.031661415100097656e+01 -8.187637329101562500e+00 -1.414654350280761719e+01 -8.187637329101562500e+00 7.141806793212890625e+01 -7.081037044525146484e+00 -1.414654350280761719e+01 -7.081037044525146484e+00 4.076800537109375000e+01
3.088514328002929688e+01 -8.191819190979003906e+00 -1.429610919952392578e+01 -8.191819190979003906e+00 7.236390686035156250e+01 -6.679708957672119141e+00 -1.429610919952392578e+01 -6.679708957672119141e+00 4.223631668090820312e+01
3.147509765625000000e+01 -8.118723869323730469e+00 -1.442687034606933594e+01 -8.118723869323730469e+00 7.325912475585937500e+01 -6.267151355743408203e+00 -1.442687034606933594e+01 -6.267151355743408203e+00 4.375338745117187500e+01
3.200236511230468750e+01 -7.984706878662109375e+00 -1.457815647125244141e+01 -7.984706878662109375e+00 7.406536865234375000e+01 -5.845929145812988281e+00 -1.457815647125244141e+01 -5.845929145812988281e+00 4.525899887084960938e+01
3.322437667846679688e+01 -7.298594474792480469e+00 -1.506675529479980469e+01 -7.298594474792480469e+00 7.634191894531250000e+01 -4.278582096099853516e+00 -1.506675529479980469e+01 -4.278582096099853516e+00 4.974596023559570312e+01
3.369629669189453125e+01 -4.825537681579589844e+00 -1.617771911621093750e+01 -4.825537681579589844e+00 7.975388336181640625e+01 -6.302825212478637695e-01 -1.617771911621093750e+01 -6.302825212478637695e-01 6.062116241455078125e+01
3.308630752563476562e+01 -4.227195262908935547e+00 -1.646932220458984375e+01 -4.227195262908935547e+00 8.034449005126953125e+01 7.902316004037857056e-02 -1.646932220458984375e+01 7.902316004037857056e-02 6.281507492065429688e+01
3.187533187866210938e+01 -3.516271352767944336e+00 -1.691960906982421875e+01 -3.516271352767944336e+00 8.094701385498046875e+01 1.158001780509948730e+00 -1.691960906982421875e+01 1.158001780509948730e+00 6.575862121582031250e+01
3.156109237670898438e+01 -3.293725967407226562e+00 -1.703931427001953125e+01 -3.293725967407226562e+00 8.115734863281250000e+01 1.518805503845214844e+00 -1.703931427001953125e+01 1.518805503845214844e+00 6.668587493896484375e+01
3.068270874023437500e+01 -2.844013214111328125e+00 -1.722029113769531250e+01 -2.844013214111328125e+00 8.162593841552734375e+01 2.252977132797241211e+00 -1.722029113769531250e+01 2.252977132797241211e+00 6.833805847167968750e+01
2.748204994201660156e+01 -1.996044993400573730e+00 -1.802504920959472656e+01 -1.996044993400573730e+00 8.421183776855468750e+01 4.994586944580078125e+00 -1.802504920959472656e+01 4.994586944580078125e+00 7.252987670898437500e+01
2.710643768310546875e+01 -1.905102372169494629e+00 -1.814347457885742188e+01 -1.905102372169494629e+00 8.475498199462890625e+01 5.444576740264892578e+00 -1.814347457885742188e+01 5.444576740264892578e+00 7.298551940917968750e+01
2.639727973937988281e+01 -1.768855571746826172e+00 -1.837478637695312500e+01 -1.768855571746826172e+00 8.641836547851562500e+01 6.762905120849609375e+00 -1.837478637695312500e+01 6.762905120849609375e+00 7.427971649169921875e+01
2.605102920532226562e+01 -1.913360357284545898e+00 -1.854958724975585938e+01 -1.913360357284545898e+00 8.826034545898437500e+01 8.204171180725097656e+00 -1.854958724975585938e+01 8.204171180725097656e+00 7.523271942138671875e+01
2.600991058349609375e+01 -1.917467236518859863e+00 -1.864070320129394531e+01 -1.917467236518859863e+00 8.897914123535156250e+01 8.683944702148437500e+00 -1.864070320129394531e+01 8.683944702148437500e+00 7.549308776855468750e+01
2.847139549255371094e+01 -3.414015054702758789e+00 -2.009646797180175781e+01 -3.414015054702758789e+00 9.440815734863281250e+01 1.231260681152343750e+01 -2.009646797180175781e+01 1.231260681152343750e+01 7.708130645751953125e+01
2.893168830871582031e+01 -3.677246570587158203e+00 -2.028061676025390625e+01 -3.677246570587158203e+00 9.455046081542968750e+01 1.237976455688476562e+01 -2.028061676025390625e+01 1.237976455688476562e+01 7.713945007324218750e+01
2.936118316650390625e+01 -3.939845561981201172e+00 -2.043868446350097656e+01 -3.939845561981201172e+00 9.466674041748046875e+01 1.238517189025878906e+01 -2.043868446350097656e+01 1.238517189025878906e+01 7.725047302246093750e+01
3.205028915405273438e+01 -4.379622459411621094e+00 -2.139222717285156250e+01 -4.379622459411621094e+00 9.457906341552734375e+01 1.207369613647460938e+01 -2.139222717285156250e+01 1.207369613647460938e+01 7.738518524169921875e+01
3.717308807373046875e+01 -3.683064699172973633e+00 -2.177074813842773438e+01 -3.683064699172973633e+00 9.238552093505859375e+01 1.062061405181884766e+01 -2.177074813842773438e+01 1.062061405181884766e+01 7.765630340576171875e+01
3.862392044067382812e+01 -3.033998966217041016e+00 -2.158397102355957031e+01 -3.033998966217041016e+00 9.140930938720703125e+01 1.016854381561279297e+01 -2.158397102355957031e+01 1.016854381561279297e+01 7.762786865234375000e+01
4.159996795654296875e+01 -8.917606472969055176e-01 -2.059201622009277344e+01 -8.917606472969055176e-01 8.807238006591796875e+01 9.394727706909179688e+00 -2.059201622009277344e+01 9.394727706909179688e+00 7.752646636962890625e+01
4.267758178710937500e+01 9.632703661918640137e-01 -1.943122291564941406e+01 9.632703661918640137e-01 8.473780059814453125e+01 8.538111686706542969e+00 -1.943122291564941406e+01 8.538111686706542969e+00 7.719869995117187500e+01
4.194756317138671875e+01 2.576231956481933594e+00 -1.859170341491699219e+01 2.576231956481933594e+00 7.786746978759765625e+01 6.501969337463378906e+00 -1.859170341491699219e+01 6.501969337463378906e+00 7.584447479248046875e+01
4.113128662109375000e+01 2.490823745727539062e+00 -1.877296066284179688e+01 2.490823745727539062e+00 7.502736663818359375e+01 5.600646972656250000e+00 -1.877296066284179688e+01 5.600646972656250000e+00 7.511043548583984375e+01
4.027927017211914062e+01 2.112424612045288086e+00 -1.927109146118164062e+01 2.112424612045288086e+00 7.214196014404296875e+01 4.515007972717285156e+00 -1.927109146118164062e+01 4.515007972717285156e+00 7.439054870605468750e+01
3.962521362304687500e+01 1.494353890419006348e+00 -2.000218582153320312e+01 1.494353890419006348e+00 6.909775543212890625e+01 3.367693424224853516e+00 -2.000218582153320312e+01 3.367693424224853516e+00 7.356786346435546875e+01
3.942385864257812500e+01 1.115046143531799316e+00 -2.048742675781250000e+01 1.115046143531799316e+00 6.754495239257812500e+01 2.828214883804321289e+00 -2.048742675781250000e+01 2.828214883804321289e+00 7.312891387939453125e+01
3.925623703002929688e+01 6.545476913452148438e-01 -2.104949569702148438e+01 6.545476913452148438e-01 6.587596893310546875e+01 2.305197477340698242e+00 -2.104949569702148438e+01 2.305197477340698242e+00 7.264019012451171875e+01
3.918614578247070312e+01 1.426421999931335449e-01 -2.163146018981933594e+01 1.426421999931335449e-01 6.426116943359375000e+01 1.781565666198730469e+00 -2.163146018981933594e+01 1.781565666198730469e+00 7.219177246093750000e+01
3.933096313476562500e+01 -2.113574504852294922e+00 -2.429566383361816406e+01 -2.113574504852294922e+00 5.814785385131835938e+01 -1.398996263742446899e-01 -2.429566383361816406e+01 -1.398996263742446899e-01 7.050992584228515625e+01
3.944273376464843750e+01 -2.656278610229492188e+00 -2.508722877502441406e+01 -2.656278610229492188e+00 5.680228424072265625e+01 -5.108560919761657715e-01 -2.508722877502441406e+01 -5.108560919761657715e-01 7.018054199218750000e+01
3.973777008056640625e+01 -3.720383882522583008e+00 -2.674037742614746094e+01 -3.720383882522583008e+00 5.429166793823242188e+01 -1.073234915733337402e+00 -2.674037742614746094e+01 -1.073234915733337402e+00 6.951270294189453125e+01
4.000505447387695312e+01 -4.736090660095214844e+00 -2.842803764343261719e+01 -4.736090660095214844e+00 5.205416107177734375e+01 -1.447025418281555176e+00 -2.842803764343261719e+01 -1.447025418281555176e+00 6.891208648681640625e+01
4.009837341308593750e+01 -5.226782321929931641e+00 -2.925984001159667969e+01 -5.226782321929931641e+00 5.108275604248046875e+01 -1.563622832298278809e+00 -2.925984001159667969e+01 -1.563622832298278809e+00 6.867417907714843750e+01
4.011030578613281250e+01 -5.705638408660888672e+00 -3.006008148193359375e+01 -5.705638408660888672e+00 5.016855239868164062e+01 -1.640178322792053223e+00 -3.006008148193359375e+01 -1.640178322792053223e+00 6.849853515625000000e+01
3.986507797241210938e+01 -6.667015075683593750e+00 -3.167579460144042969e+01 -6.667015075683593750e+00 4.842881774902343750e+01 -1.558463454246520996e+00 -3.167579460144042969e+01 -1.558463454246520996e+00 6.841977691650390625e+01
3.902219009399414062e+01 -8.046181678771972656e+00 -3.396576690673828125e+01 -8.046181678771972656e+00 4.615444564819335938e+01 -9.212653040885925293e-01 -3.396576690673828125e+01 -9.212653040885925293e-01 6.871224975585937500e+01
3.864822769165039062e+01 -8.486754417419433594e+00 -3.467129516601562500e+01 -8.486754417419433594e+00 4.553866195678710938e+01 -6.281875371932983398e-01 -3.467129516601562500e+01 -6.281875371932983398e-01 6.887512207031250000e+01
3.764260482788085938e+01 -9.288611412048339844e+00 -3.603590774536132812e+01 -9.288611412048339844e+00 4.451895904541015625e+01 4.102149978280067444e-02 -3.603590774536132812e+01 4.102149978280067444e-02 6.936103820800781250e+01
3.614212799072265625e+01 -1.031578826904296875e+01 -3.797991180419921875e+01 -1.031578826904296875e+01 4.367438125610351562e+01 1.439307808876037598e+00 -3.797991180419921875e+01 1.439307808876037598e+00 7.058349609375000000e+01
3.428871154785156250e+01 -1.106717395782470703e+01 -3.969845581054687500e+01 -1.106717395782470703e+01 4.333855056762695312e+01 3.037991046905517578e+00 -3.969845581054687500e+01 3.037991046905517578e+00 7.203895568847656250e+01
3.361693954467773438e+01 -1.127699375152587891e+01 -4.023060989379882812e+01 -1.127699375152587891e+01 4.326501464843750000e+01 3.512490987777709961e+00 -4.023060989379882812e+01 3.512490987777709961e+00 7.255246734619140625e+01
3.298526382446289062e+01 -1.149604415893554688e+01 -4.076486968994140625e+01 -1.149604415893554688e+01 4.324641418457031250e+01 3.989394426345825195e+00 -4.076486968994140625e+01 3.989394426345825195e+00 7.312493896484375000e+01
3.241172409057617188e+01 -1.171278858184814453e+01 -4.128113555908203125e+01 -1.171278858184814453e+01 4.320735931396484375e+01 4.487701892852783203e+00 -4.128113555908203125e+01 4.487701892852783203e+00 7.370002746582031250e+01
3.180314254760742188e+01 -1.188431739807128906e+01 -4.174247741699218750e+01 -1.188431739807128906e+01 4.314963531494140625e+01 4.985537528991699219e+00 -4.174247741699218750e+01 4.985537528991699219e+00 7.417681121826171875e+01
3.063649559020996094e+01 -1.217211627960205078e+01 -4.248614883422851562e+01 -1.217211627960205078e+01 4.312319183349609375e+01 5.756351470947265625e+00 -4.248614883422851562e+01 5.756351470947265625e+00 7.519381713867187500e+01
2.865233039855957031e+01 -1.205871295928955078e+01 -4.369661331176757812e+01 -1.205871295928955078e+01 4.357318496704101562e+01 6.424821376800537109e+00 -4.369661331176757812e+01 6.424821376800537109e+00 7.647206878662109375e+01
2.817507934570312500e+01 -1.192837238311767578e+01 -4.399205398559570312e+01 -1.192837238311767578e+01 4.381331253051757812e+01 6.461962699890136719e+00 -4.399205398559570312e+01 6.461962699890136719e+00 7.656054687500000000e+01
2.560279083251953125e+01 -1.050229263305664062e+01 -4.496443557739257812e+01 -1.050229263305664062e+01 4.559736251831054688e+01 5.390107631683349609e+00 -4.496443557739257812e+01 5.390107631683349609e+00 7.591808319091796875e+01
2.454716491699218750e+01 -9.395579338073730469e+00 -4.469921493530273438e+01 -9.395579338073730469e+00 4.653211212158203125e+01 4.299456596374511719e+00 -4.469921493530273438e+01 4.299456596374511719e+00 7.488951873779296875e+01
2.420639038085937500e+01 -8.928155899047851562e+00 -4.444863128662109375e+01 -8.928155899047851562e+00 4.685131454467773438e+01 3.906268835067749023e+00 -4.444863128662109375e+01 3.906268835067749023e+00 7.449867248535156250e+01
2.250395011901855469e+01 -6.304464817047119141e+00 -4.162301635742187500e+01 -6.304464817047119141e+00 4.939704513549804688e+01 2.116689920425415039e+00 -4.162301635742187500e+01 2.116689920425415039e+00 7.291938781738281250e+01
2.140173912048339844e+01 -4.779350757598876953e+00 -3.895670700073242188e+01 -4.779350757598876953e+00 5.104636764526367188e+01 1.470715999603271484e+00 -3.895670700073242188e+01 1.470715999603271484e+00 7.205155944824218750e+01
2.062096023559570312e+01 -3.345719337463378906e+00 -3.529069519042968750e+01 -3.345719337463378906e+00 5.238294982910156250e+01 1.526163458824157715e+00 -3.529069519042968750e+01 1.526163458824157715e+00 7.141069030761718750e+01
2.047522163391113281e+01 -2.906460762023925781e+00 -3.394438171386718750e+01 -2.906460762023925781e+00 5.276924514770507812e+01 1.764349341392517090e+00 -3.394438171386718750e+01 1.764349341392517090e+00 7.126044464111328125e+01
2.268975257873535156e+01 -6.352892518043518066e-01 -2.118430519104003906e+01 -6.352892518043518066e-01 5.702755355834960938e+01 5.943907260894775391e+00 -2.118430519104003906e+01 5.943907260894775391e+00 6.864605712890625000e+01
2.342404937744140625e+01 -6.276243925094604492e-01 -1.990840721130371094e+01 -6.276243925094604492e-01 5.750576400756835938e+01 6.507701873779296875e+00 -1.990840721130371094e+01 6.507701873779296875e+00 6.811501312255859375e+01
2.591215133666992188e+01 -7.206420302391052246e-01 -1.652992057800292969e+01 -7.206420302391052246e-01 5.895905685424804688e+01 8.380784988403320312e+00 -1.652992057800292969e+01 8.380784988403320312e+00 6.649564361572265625e+01
2.770612525939941406e+01 -7.627521753311157227e-01 -1.461205768585205078e+01 -7.627521753311157227e-01 6.019560623168945312e+01 9.744750022888183594e+00 -1.461205768585205078e+01 9.744750022888183594e+00 6.532160949707031250e+01
2.866057968139648438e+01 -8.484053015708923340e-01 -1.375198841094970703e+01 -8.484053015708923340e-01 6.091954803466796875e+01 1.041633510589599609e+01 -1.375198841094970703e+01 1.041633510589599609e+01 6.478061676025390625e+01
3.653401947021484375e+01 -2.701483488082885742e+00 -8.393688201904296875e+00 -2.701483488082885742e+00 6.746712493896484375e+01 1.411657714843750000e+01 -8.393688201904296875e+00 1.411657714843750000e+01 5.887057495117187500e+01
3.933293914794921875e+01 -4.003659248352050781e+00 -7.157113552093505859e+00 -4.003659248352050781e+00 6.967612457275390625e+01 1.463823223114013672e+01 -7.157113552093505859e+00 1.463823223114013672e+01 5.670154953002929688e+01
4.011358642578125000e+01 -4.490029811859130859e+00 -6.778609275817871094e+00 -4.490029811859130859e+00 7.044121551513671875e+01 1.463672828674316406e+01 -6.778609275817871094e+00 1.463672828674316406e+01 5.601850509643554688e+01
4.244769668579101562e+01 -5.878536701202392578e+00 -5.730370521545410156e+00 -5.878536701202392578e+00 7.272019958496093750e+01 1.423904705047607422e+01 -5.730370521545410156e+00 1.423904705047607422e+01 5.418572235107421875e+01
4.326953506469726562e+01 -6.397898674011230469e+00 -5.434835433959960938e+00 -6.397898674011230469e+00 7.356403350830078125e+01 1.399875545501708984e+01 -5.434835433959960938e+00 1.399875545501708984e+01 5.367456436157226562e+01
4.555715942382812500e+01 -8.206030845642089844e+00 -4.673419952392578125e+00 -8.206030845642089844e+00 7.574073791503906250e+01 1.298487567901611328e+01 -4.673419952392578125e+00 1.298487567901611328e+01 5.231372451782226562e+01
4.841887664794921875e+01 -1.082717418670654297e+01 -4.039261341094970703e+00 -1.082717418670654297e+01 7.787104034423828125e+01 1.133004570007324219e+01 -4.039261341094970703e+00 1.133004570007324219e+01 5.110195541381835938e+01
5.473271942138671875e+01 -1.394499969482421875e+01 -3.681184291839599609e+00 -1.394499969482421875e+01 7.919426727294921875e+01 6.683287143707275391e+00 -3.681184291839599609e+00 6.683287143707275391e+00 5.212398529052734375e+01
5.582936477661132812e+01 -1.404434299468994141e+01 -3.695473909378051758e+00 -1.404434299468994141e+01 7.930521392822265625e+01 5.865674972534179688e+00 -3.695473909378051758e+00 5.865674972534179688e+00 5.247970962524414062e+01
5.825152587890625000e+01 -1.399127292633056641e+01 -3.804338455200195312e+00 -1.399127292633056641e+01 7.918697357177734375e+01 4.255130290985107422e+00 -3.804338455200195312e+00 4.255130290985107422e+00 5.333710098266601562e+01
6.221512985229492188e+01 -1.320940399169921875e+01 -3.996071577072143555e+00 -1.320940399169921875e+01 7.826673889160156250e+01 2.191285133361816406e+00 -3.996071577072143555e+00 2.191285133361816406e+00 5.512554168701171875e+01
6.602193450927734375e+01 -1.137724018096923828e+01 -4.256841659545898438e+00 -1.137724018096923828e+01 7.628549194335937500e+01 6.636194884777069092e-02 -4.256841659545898438e+00 6.636194884777069092e-02 5.671936035156250000e+01
6.906351470947265625e+01 -8.824204444885253906e+00 -4.609066963195800781e+00 -8.824204444885253906e+00 7.327983093261718750e+01 -2.579575538635253906e+00 -4.609066963195800781e+00 -2.579575538635253906e+00 5.820937728881835938e+01