9.176340699195860429e-02 -2.009443193674087524e-01 2.205732822418212891e+00 2.013017654418944424e+00 1.066798114776611328e+01 9.606172561645507812e+00 2.565190553665161133e+00 1.074466133117675781e+01 3.691636085510253906e+00 -4.433296024799346369e-01 -2.827745079994202215e-01 8.131625175476074219e+00 -8.023385405540466309e-01 1.200175881385803223e+00 3.660138845443725586e+00 2.909371137619018999e+00 9.265403747558593750e+00 8.168806076049804688e+00 6.372871994972227894e-01 -3.128249645233154297e-01 4.333110809326171875e+00 1.454602599143982156e+00 1.078390407562255859e+01 7.477802276611328125e+00 3.722500324249267578e+00 4.240093708038330078e+00 6.768424510955810547e-01 -1.621288061141967551e+00 6.248841762542724609e+00 1.113574981689453125e+01 3.119957208633422852e+00 2.129658460617065430e+00 4.181513488292694647e-01 -1.012430787086486816e+00 8.342558860778808594e+00 1.140075778961181641e+01 2.149250745773315430e+00 3.367118120193481445e+00 1.965273737907409446e+00 -4.903741925954849257e-02 7.112077236175537109e+00 9.857811927795410156e+00 -6.891648471355389660e-02 2.553663969039917436e+00 1.165241336822509766e+01 2.181611776351928711e+00 7.914385795593262607e+00 1.728023439645767212e-01 -4.901848733425140936e-01 7.417255401611328125e+00 5.479081153869628906e+00 2.595412254333495650e+00 3.056772708892822710e+00 6.340379714965819424e+00 3.719936370849609375e+00 6.883868217468262607e+00 4.349438667297363281e+00 -1.616202235221862793e+00 3.591735363006591353e+00 7.481036663055420810e+00 -5.295385122299193226e-01 5.583231925964355469e+00 4.252205371856689453e+00 2.635161399841308150e+00 4.888987064361572266e+00 7.561876296997070312e+00 -5.116498470306396484e-01 7.557928562164306641e+00 3.280309200286864790e+00 2.597982168197632280e+00 2.916591167449951616e+00 8.536146163940429688e+00 6.120852470397949219e+00 -1.944335550069808960e-01 2.213947296142578125e+00 8.042042732238769531e+00 1.066404533386230469e+01 9.612937927246093750e+00 8.582365989685058594e+00 1.075162696838378906e+01 3.688443183898925337e+00 5.565155506134033203e+00 -2.804036438465117853e-01 8.133128166198730469e+00 5.213638305664062500e+00 1.203596591949462447e+00 3.652016639709472656e+00 8.933675765991210938e+00 9.274473190307617188e+00 8.169095039367675781e+00 6.665813446044921875e+00 -3.047559559345245361e-01 4.341228961944580078e+00 7.494097709655761719e+00 1.078470897674560547e+01 7.487611770629881924e+00 9.749773979187011719e+00 4.226429939270019531e+00 6.764310002326965332e-01 4.414148807525635654e+00 6.244489669799803799e+00 1.113571262359619141e+01 9.135601997375486505e+00 2.126093387603759766e+00 4.131073355674743097e-01 5.004325389862060547e+00 8.344641685485839844e+00 1.140411090850830078e+01 8.175111770629884589e+00 3.376395940780639648e+00 1.963461279869079368e+00 5.976437091827391690e+00 7.102401733398438388e+00 9.857350349426269531e+00 5.939984798431396484e+00 2.550614595413208452e+00 1.165160179138183594e+01 8.207612037658691406e+00 7.921674251556397373e+00 1.602040529251098633e-01 5.533710002899169922e+00 7.410364627838134766e+00 5.474707126617431641e+00 8.614973068237304688e+00 3.054458379745483398e+00 6.339386940002441406e+00 9.748994827270507812e+00 6.876779079437256748e+00 4.346687793731689453e+00 4.398209571838379794e+00 3.584596872329711470e+00 7.471055984497069424e+00 5.499205589294433594e+00 5.580706119537353516e+00 4.249583721160888672e+00 8.655962944030761719e+00 4.889999389648437500e+00 7.554957866668701172e+00 5.528144836425781250e+00 7.565835475921630859e+00 3.279481410980224609e+00 8.620551109313966620e+00 2.911662817001342773e+00 8.537248611450195312e+00
-1.970987081527709739e+00 1.145139217376708984e+01 2.179593563079833984e+00 1.994186043739318848e+00 1.062939071655273438e+01 9.554476737976074219e+00 2.678623914718627930e+00 1.066291999816894531e+01 3.729590892791748047e+00 -3.343559205532073419e-01 -3.238451182842255194e-01 8.148826599121093750e+00 -7.628303170204162598e-01 1.161492586135864480e+00 3.733450651168823686e+00 2.914886951446533647e+00 9.226433753967285156e+00 8.213608741760253906e+00 5.664548277854919434e-01 -3.795151412487030029e-01 4.294402599334716797e+00 1.399130582809448686e+00 1.083186054229736328e+01 7.427683353424071377e+00 3.718506574630737749e+00 4.346765041351318359e+00 6.440054774284362793e-01 -1.639006853103637473e+00 6.335574626922608310e+00 1.109861278533935547e+01 3.167038440704345703e+00 2.112113714218139648e+00 4.868870973587036133e-01 -1.005093455314636230e+00 8.362854957580566406e+00 1.133802700042724609e+01 2.118137836456298828e+00 3.353492259979248047e+00 2.013355255126953125e+00 -4.803561046719518474e-02 7.206411838531494141e+00 9.859603881835937500e+00 4.121115803718553017e-02 2.583466291427611861e+00 1.166768836975097656e+01 2.180812358856201172e+00 7.834535598754882812e+00 2.312969565391540527e-01 -5.023095607757567249e-01 7.437107086181641513e+00 5.498725414276123047e+00 2.630009889602661133e+00 3.055259943008422852e+00 6.326211929321288174e+00 3.690766096115113193e+00 6.930550098419188565e+00 4.374380111694335938e+00 -1.580706715583801270e+00 3.582011938095093218e+00 7.593308448791503906e+00 -5.836149454116820179e-01 5.581046104431152344e+00 4.229348659515380859e+00 2.720018148422240767e+00 4.890833854675292969e+00 7.529942989349365234e+00 -6.551367044448851429e-01 7.543735980987549716e+00 3.286430835723876953e+00 2.543550729751586914e+00 2.957094907760621005e+00 8.503144264221191406e+00 6.208606243133545810e+00 -1.420254856348037720e-01 2.283875703811645508e+00 8.076839447021484375e+00 1.058147048950195312e+01 9.641639709472656250e+00 8.604014396667480469e+00 1.075108146667480469e+01 3.688114643096923828e+00 5.481687068939208984e+00 -2.938955724239348810e-01 8.164574623107910156e+00 5.148831367492676669e+00 1.202804088592529297e+00 3.631278276443481445e+00 8.937127113342285156e+00 9.336296081542968750e+00 8.217571258544921875e+00 6.636646270751954013e+00 -2.725666761398315430e-01 4.398302078247070312e+00 7.609448432922361505e+00 1.084594440460205078e+01 7.550959110260010654e+00 9.772895812988281250e+00 4.171951770782470703e+00 6.350025534629821777e-01 4.518249988555908203e+00 6.277812957763672763e+00 1.109884262084960938e+01 9.071775436401367188e+00 2.065747976303100586e+00 4.228411018848419189e-01 4.917478561401367188e+00 8.386933326721191406e+00 1.137757015228271484e+01 8.155674934387207031e+00 3.470919132232665572e+00 1.990481495857238770e+00 5.984892845153808594e+00 7.086302280426025391e+00 9.850425720214843750e+00 5.865949153900146484e+00 2.544952630996704546e+00 1.165916252136230469e+01 8.225605964660646308e+00 7.928080081939697266e+00 7.462009042501449585e-02 5.512609958648681641e+00 7.349653244018554688e+00 5.445051193237304688e+00 8.592960357666015625e+00 3.026180505752563921e+00 6.316719055175781250e+00 9.763998985290527344e+00 6.839713096618652344e+00 4.343083381652832031e+00 4.319561004638671875e+00 3.490811586380004883e+00 7.466554641723631924e+00 5.489044189453125000e+00 5.551635265350341797e+00 4.193813800811767578e+00 8.694721221923828125e+00 4.900776863098144531e+00 7.442255973815917969e+00 5.558612823486328125e+00 7.641978740692137784e+00 3.278808355331420898e+00 8.542032241821289062e+00 2.896808624267578569e+00 8.514647483825683594e+00
-1.965552091598510520e+00 1.144777584075927734e+01 2.175441026687622070e+00 1.989957332611083984e+00 1.062307739257812500e+01 9.546956062316894531e+00 2.696524143218993697e+00 1.064944744110107422e+01 3.735359191894531250e+00 -3.160789608955381635e-01 -3.299815058708190918e-01 8.152410507202148438e+00 -7.566875815391540527e-01 1.155824303627014160e+00 3.744919538497925249e+00 2.915422439575194868e+00 9.220337867736816406e+00 8.220230102539062500e+00 5.568389296531677246e-01 -3.909578919410705566e-01 4.289066314697265625e+00 1.390435218811034934e+00 1.083894157409667969e+01 7.419794082641601562e+00 3.718286275863648793e+00 4.363593101501464844e+00 6.396747231483459473e-01 -1.642079830169677734e+00 6.349226474761962891e+00 1.109240913391113281e+01 3.174988269805908203e+00 2.110127925872802734e+00 4.983433187007904053e-01 -1.003682494163513406e+00 8.366909980773925781e+00 1.132886314392089844e+01 2.113645315170288086e+00 3.351665019989013672e+00 2.020561933517456055e+00 -4.714618995785718053e-02 7.221182823181151456e+00 9.859722137451171875e+00 5.819570273160937918e-02 2.587891817092895064e+00 1.166982269287109375e+01 2.179885625839233398e+00 7.822198390960692471e+00 2.399537414312362671e-01 -5.044363141059873268e-01 7.440049171447753906e+00 5.501554012298583984e+00 2.634578466415405273e+00 3.054748296737670898e+00 6.322934627532958984e+00 3.686395168304443359e+00 6.938017845153809482e+00 4.377873897552490234e+00 -1.575894832611083984e+00 3.580024719238280806e+00 7.611383438110351562e+00 -5.917856693267821155e-01 5.580293178558349609e+00 4.225823402404785156e+00 2.733442068099975586e+00 4.891932487487792969e+00 7.524486541748045987e+00 -6.775218844413759545e-01 7.542110443115234375e+00 3.286623954772949219e+00 2.533849477767943892e+00 2.963294267654419389e+00 8.498391151428222656e+00 6.223157405853271484e+00 -1.336133182048797607e-01 2.294949531555175781e+00 8.082604408264160156e+00 1.056900978088378906e+01 9.647358894348144531e+00 8.606293678283693183e+00 1.075036144256591797e+01 3.687471866607666016e+00 5.468853473663330966e+00 -2.957135140895843506e-01 8.169158935546875000e+00 5.138029575347900391e+00 1.202281951904297097e+00 3.628188371658325195e+00 8.938623428344724786e+00 9.344178199768066406e+00 8.224786758422851562e+00 6.632776260375977451e+00 -2.666335999965667725e-01 4.408428668975830078e+00 7.627409458160403055e+00 1.085653018951416016e+01 7.560595035552979404e+00 9.776103019714355469e+00 4.162673950195312500e+00 6.279377341270446777e-01 4.533334732055664951e+00 6.282070636749267578e+00 1.109296607971191406e+01 9.060760498046875000e+00 2.056601285934448242e+00 4.249446988105773371e-01 4.903932571411132812e+00 8.393514633178710938e+00 1.137298011779785156e+01 8.152753829956054688e+00 3.486112117767333984e+00 1.994378924369812012e+00 5.986782550811767578e+00 7.084669113159179688e+00 9.847916603088378906e+00 5.854439258575438565e+00 2.543882608413696289e+00 1.166074466705322266e+01 8.229418754577636719e+00 7.929795742034912109e+00 6.171256676316261292e-02 5.509632110595704013e+00 7.339841842651367188e+00 5.440775871276855469e+00 8.590240478515625000e+00 3.021510124206542969e+00 6.313245773315429688e+00 9.764429092407226562e+00 6.833577156066894531e+00 4.343479156494140625e+00 4.309003353118895596e+00 3.475247383117675337e+00 7.466157913208007812e+00 5.486942768096922940e+00 5.547594547271727627e+00 4.184284687042236328e+00 8.701038360595703125e+00 4.902233123779296875e+00 7.424068927764891690e+00 5.563127994537353516e+00 7.653850078582764560e+00 3.279025077819823775e+00 8.529255867004394531e+00 2.895044565200805664e+00 8.510644912719726562e+00
-1.952826738357543945e+00 1.143934059143066406e+01 2.165498018264770508e+00 1.977158784866333452e+00 1.060745906829833984e+01 9.530305862426757812e+00 2.739402532577515981e+00 1.061599731445312500e+01 3.748630523681640625e+00 -2.700592279434203546e-01 -3.440073132514953613e-01 8.162766456604003906e+00 -7.421419024467468262e-01 1.143151283264160156e+00 3.772218465805053711e+00 2.916134834289550781e+00 9.205754280090332031e+00 8.235194206237792969e+00 5.372078418731688343e-01 -4.202892780303955078e-01 4.277894496917724609e+00 1.369646787643432173e+00 1.085502147674560547e+01 7.400909423828125000e+00 3.718912839889526811e+00 4.404119491577148438e+00 6.310777664184570312e-01 -1.649958014488220437e+00 6.381828308105469638e+00 1.107683467864990234e+01 3.195013999938965288e+00 2.106930017471313477e+00 5.269956588745117188e-01 -9.998863935470584385e-01 8.378548622131347656e+00 1.130853271484375000e+01 2.103672027587890625e+00 3.347919940948486328e+00 2.037069797515869141e+00 -4.352188110351534744e-02 7.256209850311280185e+00 9.859530448913574219e+00 9.791073203086880783e-02 2.597786903381347656e+00 1.167432308197021484e+01 2.176082611083984375e+00 7.793149471282958096e+00 2.595753967761993408e-01 -5.100114941596983753e-01 7.446691036224366123e+00 5.507672786712646484e+00 2.643565416336059570e+00 3.053023338317871538e+00 6.312943458557128906e+00 3.676317930221558505e+00 6.956112384796142578e+00 4.385335922241210938e+00 -1.565937280654907227e+00 3.574428081512451616e+00 7.655456066131591797e+00 -6.105717420578004040e-01 5.577687263488769531e+00 4.217490673065185547e+00 2.765788793563842329e+00 4.896079540252685547e+00 7.510556697845458984e+00 -7.304291725158690296e-01 7.539549350738525391e+00 3.285426855087280273e+00 2.508299827575684038e+00 2.977868080139160156e+00 8.487801551818847656e+00 6.259396553039550781e+00 -1.131574958562850952e-01 2.321657657623291016e+00 8.096895217895507812e+00 1.054042339324951172e+01 9.663639068603515625e+00 8.609237670898441053e+00 1.074736213684082031e+01 3.684618234634399414e+00 5.438862800598144531e+00 -2.994057834148406982e-01 8.179285049438476562e+00 5.111056327819824219e+00 1.200087428092956543e+00 3.621144294738769531e+00 8.944159507751464844e+00 9.359113693237304688e+00 8.240976333618164062e+00 6.624983310699463779e+00 -2.505684196949005127e-01 4.435010433197021484e+00 7.669999122619628906e+00 1.088383483886718750e+01 7.583013057708740234e+00 9.782850265502929688e+00 4.139049530029296875e+00 6.099963188171386719e-01 4.566507816314696377e+00 6.290189266204834873e+00 1.107882404327392578e+01 9.032472610473632812e+00 2.035461425781250000e+00 4.310958683490753174e-01 4.871807098388672763e+00 8.409036636352539062e+00 1.136116313934326172e+01 8.146078109741212714e+00 3.523095846176147461e+00 2.002941608428955078e+00 5.992480754852294922e+00 7.082668304443358487e+00 9.838834762573242188e+00 5.827192306518553799e+00 2.540951013565063921e+00 1.166531944274902344e+01 8.240725517272949219e+00 7.935372829437255859e+00 3.214765340089797974e-02 5.503247737884521484e+00 7.315842628479003906e+00 5.431317806243896484e+00 8.585132598876953125e+00 3.009846925735473189e+00 6.305097103118896484e+00 9.761285781860351562e+00 6.818193912506103516e+00 4.346615791320800781e+00 4.287561893463134766e+00 3.436358928680419478e+00 7.466007709503173828e+00 5.480893135070799893e+00 5.539014339447022373e+00 4.159993171691894531e+00 8.716647148132324219e+00 4.905187606811523438e+00 7.379699707031249112e+00 5.573386192321778232e+00 7.682040214538573331e+00 3.280202150344848633e+00 8.497890472412109375e+00 2.891993999481201172e+00 8.500158309936523438e+00
-1.939503550529479980e+00 1.143054771423339844e+01 2.154699563980102539e+00 1.956676721572876643e+00 1.058900737762451172e+01 9.515141487121582031e+00 2.786830186843872070e+00 1.057637691497802734e+01 3.761868953704833984e+00 -2.141060531139373502e-01 -3.580918312072752796e-01 8.178321838378906250e+00 -7.263996601104735218e-01 1.131149053573608398e+00 3.802003622055053711e+00 2.915759801864624023e+00 9.189611434936523438e+00 8.249665260314941406e+00 -1.574428081512450950e+00 1.121882915496826172e+01 4.269238948822021484e+00 1.346712112426757590e+00 1.087084865570068359e+01 7.380083560943603516e+00 3.722728967666625977e+00 4.449707508087158203e+00 6.257934570312500000e-01 -1.659780979156494141e+00 6.417544841766357422e+00 1.105795669555664062e+01 3.219334125518798828e+00 2.106954813003540039e+00 5.613835453987121582e-01 -9.948995113372799404e-01 8.396120071411132812e+00 1.129003524780273438e+01 2.094389677047729936e+00 3.345232009887695757e+00 2.053584337234497070e+00 -3.602755069732684751e-02 7.293873786926269531e+00 9.858002662658691406e+00 1.392399221658708053e-01 2.606835365295410156e+00 1.167779445648193359e+01 2.168277740478516513e+00 7.762220859527588779e+00 2.787180542945861816e-01 -5.173867940902708851e-01 7.453040599822998935e+00 5.512716293334960938e+00 2.648867130279541016e+00 3.050133943557739258e+00 6.297062397003174716e+00 3.665994644165038618e+00 6.976579666137696201e+00 4.391454219818115234e+00 -1.558545351028442383e+00 3.566409587860106978e+00 7.705923080444335938e+00 -6.294455528259277344e-01 5.573078155517578125e+00 4.208459854125976562e+00 2.802202224731444868e+00 4.903801441192626953e+00 7.493157863616942471e+00 -7.870348095893860974e-01 7.539855003356933594e+00 3.280223131179809570e+00 2.474790573120116743e+00 2.993581295013427734e+00 8.477627754211425781e+00 6.302543640136719638e+00 -8.984638750553132491e-02 2.351779937744140625e+00 8.113718986511230469e+00 1.051187419891357422e+01 9.687634468078613281e+00 8.606476783752441406e+00 1.074122905731201172e+01 3.678272724151611328e+00 5.407557010650634766e+00 -3.019237816333770197e-01 8.188405990600585938e+00 5.078855991363524502e+00 1.195240974426269531e+00 3.614164829254150391e+00 -3.095273017883300781e+00 9.366530418395996094e+00 8.256019592285156250e+00 6.619680404663085938e+00 -2.283579558134078979e-01 4.469750404357910156e+00 9.814249038696289062e+00 -7.574911117553710938e-01 7.606474876403808594e+00 9.788081169128417969e+00 4.109751701354980469e+00 5.878997445106506348e-01 4.596133708953857422e+00 6.294372558593750888e+00 1.106311416625976562e+01 8.996890068054199219e+00 2.013876438140869141e+00 4.404307603836059570e-01 4.837096691131591797e+00 8.425472259521484375e+00 1.134616851806640625e+01 8.139469146728515625e+00 3.565289258956909180e+00 2.010604619979858398e+00 6.001479148864746094e+00 7.084945201873779297e+00 9.821567535400390625e+00 5.797818183898925781e+00 2.536871910095214400e+00 1.167213726043701172e+01 8.258388519287109375e+00 7.944978713989257812e+00 2.723777201026678085e-03 5.497997283935546875e+00 7.288165092468261719e+00 5.422675132751464844e+00 8.582626342773437500e+00 2.995767593383789507e+00 6.296403884887694424e+00 9.748012542724609375e+00 6.799483776092529297e+00 4.355456829071044922e+00 4.272580623626708984e+00 3.389621734619140625e+00 7.467934131622314453e+00 5.471870422363281250e+00 5.532065391540527344e+00 4.129806995391845703e+00 8.735033035278320312e+00 4.907194614410400391e+00 7.328904628753662998e+00 5.583454608917236328e+00 7.712635517120361328e+00 3.283017873764037642e+00 8.461533546447755683e+00 2.891356706619262695e+00 8.486536979675292969e+00
-1.914163827896118164e+00 1.141315937042236328e+01 2.135611772537231445e+00 1.834082841873168501e+00 1.052753067016601562e+01 9.505353927612304688e+00 2.920477867126464400e+00 1.044773006439208984e+01 3.779368400573730469e+00 -1.730209775269030137e-02 -3.888545632362365168e-01 8.265895843505859375e+00 -6.832982897758483887e-01 1.110433816909790039e+00 3.877703666687011275e+00 2.903296947479248935e+00 9.148862838745117188e+00 8.265850067138671875e+00 -1.534713506698608176e+00 1.107380390167236328e+01 4.278590202331542969e+00 1.287185192108154963e+00 1.089155864715576172e+01 7.327226638793945312e+00 3.769323110580443892e+00 4.582217216491699219e+00 6.592823266983032227e-01 -1.694787502288818137e+00 6.510268211364746094e+00 1.098868274688720703e+01 3.307393312454224077e+00 2.146364688873291016e+00 6.804184913635253906e-01 -9.743323922157289818e-01 8.493291854858398438e+00 1.128581714630126953e+01 2.087728261947632280e+00 3.355494976043701172e+00 2.078139781951904297e+00 1.988949999213280792e-02 7.379620075225829190e+00 9.840443611145019531e+00 2.198106050491334951e-01 2.605784177780150923e+00 1.167122840881347656e+01 2.108325004577637163e+00 7.695148468017578125e+00 3.006740212440490723e-01 -5.539899468421937145e-01 7.456923484802246094e+00 5.501248836517333984e+00 2.619551181793212447e+00 3.038933992385864702e+00 6.213883399963378906e+00 3.647568464279174805e+00 7.036105155944825107e+00 4.383474826812744141e+00 -1.579622626304626465e+00 3.526321649551391157e+00 7.856397628784178799e+00 -6.622398495674133301e-01 5.550776481628417969e+00 4.184384822845458984e+00 2.913915872573852539e+00 4.942887783050537998e+00 7.424724102020262784e+00 -9.240628480911253773e-01 7.568209171295166016e+00 3.232869863510131836e+00 2.336393594741821733e+00 3.039308547973632812e+00 8.454218864440917969e+00 6.448166847229003906e+00 -2.049104869365693180e-02 2.445501327514648438e+00 8.173993110656736505e+00 1.046608638763427734e+01 9.804860115051269531e+00 8.542695999145509589e+00 1.070297145843505859e+01 3.626384735107421875e+00 5.341661930084229404e+00 -2.943746745586395819e-01 8.192558288574218750e+00 4.971864700317382812e+00 1.148690223693847656e+00 3.604132175445556197e+00 -3.027310371398925781e+00 9.305252075195312500e+00 8.264340400695800781e+00 6.632633686065673828e+00 -1.187195479869842668e-01 4.616162776947021484e+00 9.939975738525390625e+00 -6.224231719970703125e-01 7.665815353393554688e+00 9.776061058044433594e+00 3.999052524566649947e+00 5.056607127189636230e-01 4.611488342285156250e+00 6.261680126190186435e+00 1.101923465728759766e+01 8.856132507324220526e+00 1.975472092628479226e+00 4.935696721076965332e-01 4.756253242492675781e+00 8.454724311828615058e+00 1.128339004516601562e+01 8.131015777587890625e+00 3.689597845077514648e+00 2.011693477630615234e+00 6.047618865966796875e+00 7.136885643005371094e+00 9.707676887512207031e+00 5.727688312530517578e+00 2.517750263214110440e+00 1.170714759826660156e+01 6.528742313385009766e+00 6.805304050445556641e+00 1.177084732055664062e+01 5.504768371582031250e+00 7.201837539672850674e+00 5.419422626495361328e+00 8.610419273376463067e+00 2.942822694778442383e+00 6.274488925933837891e+00 9.619729042053222656e+00 6.731052398681639737e+00 4.436657428741455078e+00 4.304955482482910156e+00 3.224550247192382812e+00 7.497377395629881924e+00 5.421995162963868076e+00 5.542338371276856357e+00 4.013559341430664062e+00 8.796392440795896661e+00 4.898373603820800781e+00 7.178153514862060547e+00 5.595829486846924716e+00 7.786922454833984375e+00 3.307600736618041992e+00 8.347320556640625000e+00 2.921116113662719727e+00 8.430073738098144531e+00
-1.913885354995727539e+00 1.141197586059570312e+01 2.139450311660766602e+00 1.778741717338562234e+00 1.050903892517089844e+01 9.512168884277343750e+00 2.958838701248168501e+00 1.041226196289062500e+01 3.775617122650146040e+00 4.395395517349250103e-02 -3.976283073425293524e-01 8.307190895080566406e+00 -6.701765060424804688e-01 1.103967547416687012e+00 3.893376827239989790e+00 2.894509553909301314e+00 9.143286705017089844e+00 8.259763717651367188e+00 -1.502053260803222656e+00 1.102168560028076172e+01 4.289830684661865234e+00 1.275600075721740279e+00 1.088563823699951172e+01 7.317808151245117188e+00 3.792737483978272817e+00 4.615429878234863281e+00 6.879134178161621094e-01 -1.704826951026916504e+00 6.532379627227784091e+00 1.096387767791748047e+01 3.338342428207397461e+00 2.173770666122436523e+00 7.186067700386047363e-01 -9.654219150543210670e-01 8.533739089965820312e+00 1.130355072021484375e+01 2.094274044036865234e+00 3.367168903350830078e+00 2.074591636657714844e+00 4.616089165210748163e-02 7.392791748046875000e+00 9.833860397338867188e+00 2.278738617897039798e-01 2.593970775604248047e+00 1.166450214385986328e+01 2.076775789260864702e+00 7.688621044158935547e+00 2.913271188735961914e-01 -5.717329382896423340e-01 7.450914859771729404e+00 5.484927654266357422e+00 2.599251508712768555e+00 3.037992954254150835e+00 6.184147834777832031e+00 3.648613452911378285e+00 7.051873683929443359e+00 4.370568275451660156e+00 -1.603603124618530273e+00 3.508844137191772461e+00 7.895948886871337891e+00 -6.652044057846069336e-01 5.546412944793701172e+00 4.178309917449951172e+00 2.948783874511719194e+00 4.952404022216796875e+00 7.399319171905518466e+00 -9.554039239883422852e-01 7.581571578979492188e+00 3.213998317718505859e+00 2.288213968276977539e+00 3.054718255996703657e+00 8.444330215454101562e+00 6.493645191192626953e+00 -1.738850958645361345e-03 2.476293802261352539e+00 8.198519706726074219e+00 1.046620273590087891e+01 9.846441268920898438e+00 8.511555671691894531e+00 1.068930053710937500e+01 3.600408077239990234e+00 5.331180572509766513e+00 -2.889710068702697754e-01 8.187497138977050781e+00 4.940379619598388672e+00 1.119830965995788574e+00 3.605821609497070312e+00 -2.999156951904296875e+00 9.267308235168457031e+00 8.254775047302246094e+00 6.642112255096436435e+00 -7.175388932228091154e-02 4.670042037963867188e+00 9.976015090942382812e+00 -5.770120620727537952e-01 7.683577537536621094e+00 9.761309623718261719e+00 3.960510015487671343e+00 4.766239523887633722e-01 4.597617626190184659e+00 6.240599155426024502e+00 1.100671482086181641e+01 8.803597450256347656e+00 1.974643588066101296e+00 5.191727876663208008e-01 4.744977474212650037e+00 8.451510429382324219e+00 1.125787258148193359e+01 8.133649826049804688e+00 3.721924543380737305e+00 2.003925085067749023e+00 6.063016891479491299e+00 7.166427135467530185e+00 9.660545349121093750e+00 5.715107440948488104e+00 2.510377883911133257e+00 1.172102832794189453e+01 6.563404560089110440e+00 6.837584018707275391e+00 1.176470851898193359e+01 5.515377998352049893e+00 7.176405429840088779e+00 5.427245616912841797e+00 8.633396148681640625e+00 2.922762393951416460e+00 6.269252300262451172e+00 9.560298919677734375e+00 6.708358287811279297e+00 4.477085113525390625e+00 4.330689430236815518e+00 3.169974088668823242e+00 7.513475894927977627e+00 5.398722648620605469e+00 5.558452606201172763e+00 3.971136808395385298e+00 8.815540313720703125e+00 4.889936923980712891e+00 7.138652324676512784e+00 5.591697216033935547e+00 7.799858570098877841e+00 3.321252584457397905e+00 8.313501358032226562e+00 2.943030118942260742e+00 8.409263610839843750e+00
-1.917637586593628152e+00 1.141279220581054688e+01 2.149923086166381836e+00 1.719710230827330877e+00 1.049219131469726562e+01 9.519987106323242188e+00 2.997366905212402788e+00 1.038298130035400391e+01 3.768265724182128906e+00 1.001674830913543424e-01 -4.085169434547423761e-01 8.354202270507812500e+00 -6.560553312301635742e-01 1.093588829040527344e+00 3.904766798019409180e+00 2.882628917694092241e+00 9.143290519714355469e+00 8.248854637145996094e+00 -1.467526555061340332e+00 1.096935749053955078e+01 4.301286697387695312e+00 1.268557667732238103e+00 1.087315940856933594e+01 7.312929153442382812e+00 3.816028594970703569e+00 4.641487121582031250e+00 7.236508131027221680e-01 -1.713055014610290305e+00 6.552530765533447266e+00 1.093791866302490234e+01 3.370750188827514648e+00 2.207952022552490234e+00 7.551940679550172009e-01 -9.545428752899169922e-01 8.573789596557617188e+00 1.132796382904052734e+01 2.104598283767700195e+00 3.383844137191772461e+00 2.065855979919433594e+00 7.367440313100787064e-02 7.399895668029786044e+00 9.830019950866699219e+00 2.306470423936845537e-01 2.577744722366333008e+00 1.165740489959716797e+01 2.039994239807128906e+00 7.690455436706542969e+00 2.737357616424560547e-01 -5.929589271545407936e-01 7.441227436065674716e+00 5.461983203887939453e+00 2.577894687652588335e+00 3.039710521697998047e+00 6.157907009124755859e+00 3.653772354125976562e+00 7.065868854522705078e+00 4.353361129760742188e+00 -1.635390758514404297e+00 3.489404916763305220e+00 7.929600238800048828e+00 -6.671680808067319557e-01 5.546354770660401279e+00 4.172867774963378906e+00 2.983773708343505415e+00 4.956209182739257812e+00 7.372916698455810547e+00 -9.842303991317747913e-01 7.593262195587157315e+00 3.197947978973388672e+00 2.242435455322265625e+00 3.071677923202514648e+00 8.430238723754882812e+00 6.536945343017578125e+00 1.491565071046351866e-02 2.508909702301025391e+00 8.227545738220214844e+00 1.047123813629150391e+01 9.883608818054199219e+00 8.481697082519531250e+00 1.067777729034423828e+01 3.571898937225341797e+00 5.323198795318603516e+00 -2.842448949813842773e-01 8.181866645812988281e+00 4.912221431732177734e+00 1.083351254463195801e+00 3.609940528869629350e+00 -2.971236228942871094e+00 9.229087829589843750e+00 8.242109298706054688e+00 6.650415420532226562e+00 -2.112227305769922431e-02 4.723594665527343750e+00 1.001302242279052734e+01 -5.342292785644531250e-01 7.703509330749511719e+00 9.742057800292968750e+00 3.922276496887207031e+00 4.467466175556183416e-01 4.582256317138671875e+00 6.218775749206542969e+00 1.099397850036621094e+01 8.748568534851074219e+00 1.978051781654357688e+00 5.489928126335144043e-01 4.741930484771728516e+00 8.440715789794921875e+00 1.122971725463867188e+01 8.138974189758300781e+00 3.749537467956543413e+00 1.993458151817321999e+00 6.075471878051759589e+00 7.199558258056640625e+00 9.615223884582519531e+00 5.706607818603516513e+00 2.503247261047364169e+00 1.173437023162841797e+01 6.594276905059815341e+00 6.874704837799071377e+00 1.175891399383544922e+01 5.529069900512695312e+00 7.152232170104981357e+00 5.438478469848632812e+00 8.663466453552246094e+00 2.900979042053222656e+00 6.264576435089111328e+00 9.500670433044433594e+00 6.686544895172119141e+00 4.520468235015869141e+00 4.354925632476806641e+00 3.116772413253783736e+00 7.530915737152098721e+00 5.372375965118409091e+00 5.580575942993164951e+00 3.927191257476806641e+00 8.833741188049316406e+00 4.879143238067627841e+00 7.104801654815672940e+00 5.583786010742187500e+00 7.807343482971192294e+00 3.337450981140136719e+00 8.281095504760742188e+00 2.970862627029418945e+00 8.388294219970703125e+00