-8.601419921875000000e+03
-8.599207031250000000e+03
-8.598590820312500000e+03
-8.597036132812500000e+03
-8.595558593750000000e+03
-8.595677734375000000e+03
-8.596172851562500000e+03
-8.596450195312500000e+03
-8.596506835937500000e+03
-8.596679687500000000e+03
-8.596750976562500000e+03
-8.596790039062500000e+03
-8.597082031250000000e+03
-8.597543945312500000e+03
-8.597720703125000000e+03
-8.597566406250000000e+03
-8.594489257812500000e+03
-8.594219726562500000e+03
-8.593996093750000000e+03
-8.594666015625000000e+03
-8.594962890625000000e+03
-8.595256835937500000e+03
-8.595643554687500000e+03
-8.595837890625000000e+03
-8.595911132812500000e+03
-8.595965820312500000e+03
-8.596000976562500000e+03
-8.596016601562500000e+03
-8.595155273437500000e+03
-8.593785156250000000e+03
-8.592700195312500000e+03
-8.592280273437500000e+03
-8.590440429687500000e+03
-8.592587890625000000e+03
-8.592775390625000000e+03
-8.593995117187500000e+03
-8.594277343750000000e+03
-8.594514648437500000e+03
-8.594819335937500000e+03
-8.594878906250000000e+03
-8.594864257812500000e+03
-8.594721679687500000e+03
-8.594189453125000000e+03
-8.593583984375000000e+03
-8.592771484375000000e+03
-8.592618164062500000e+03
-8.592334960937500000e+03
-8.591982421875000000e+03
-8.591736328125000000e+03
-8.591678710937500000e+03
-8.591565429687500000e+03
-8.591586914062500000e+03
-8.591696289062500000e+03
-8.592012695312500000e+03
-8.592006835937500000e+03
-8.591944335937500000e+03
-8.591772460937500000e+03
-8.591634765625000000e+03
-8.591662109375000000e+03
-8.591784179687500000e+03
-8.591947265625000000e+03
-8.591973632812500000e+03
-8.592021484375000000e+03
-8.592078125000000000e+03
-8.592123046875000000e+03
-8.592121093750000000e+03
-8.592098632812500000e+03
-8.592027343750000000e+03
-8.591936523437500000e+03
-8.592211914062500000e+03
-8.592541015625000000e+03
-8.593058593750000000e+03
-8.593164062500000000e+03
-8.593626953125000000e+03
-8.593654296875000000e+03
-8.593474609375000000e+03
-8.591704101562500000e+03
-8.591347656250000000e+03
-8.588882812500000000e+03
-8.588871093750000000e+03
-8.588870117187500000e+03
-8.589869140625000000e+03
-8.590014648437500000e+03
-8.592120117187500000e+03
-8.592776367187500000e+03
-8.593560546875000000e+03
-8.593444335937500000e+03
-8.593057617187500000e+03
-8.591824218750000000e+03
-8.591768554687500000e+03
-8.591704101562500000e+03
-8.591852539062500000e+03
-8.592419921875000000e+03
-8.592532226562500000e+03
-8.592643554687500000e+03
-8.592959960937500000e+03
-8.593416015625000000e+03
-8.593437500000000000e+03
-8.593447265625000000e+03
-8.593433593750000000e+03
-8.593375976562500000e+03
-8.593152343750000000e+03
-8.592999023437500000e+03
-8.592455078125000000e+03
-8.591901367187500000e+03
-8.591731445312500000e+03
-8.591354492187500000e+03
-8.590852539062500000e+03
-8.590835937500000000e+03
-8.590818359375000000e+03
-8.590818359375000000e+03
-8.590855468750000000e+03
-8.590879882812500000e+03
-8.591087890625000000e+03
-8.591589843750000000e+03
-8.591676757812500000e+03
-8.591766601562500000e+03
-8.592050781250000000e+03
-8.592931640625000000e+03
-8.593022460937500000e+03
-8.593431640625000000e+03
-8.593570312500000000e+03
-8.594091796875000000e+03
-8.594260742187500000e+03
-8.594300781250000000e+03
-8.594345703125000000e+03
-8.594347656250000000e+03
-8.594344726562500000e+03
-8.593267578125000000e+03
-8.593152343750000000e+03
-8.591771484375000000e+03
-8.591655273437500000e+03
-8.591344726562500000e+03
-8.591051757812500000e+03
-8.590971679687500000e+03
-8.591168945312500000e+03
-8.591663085937500000e+03
-8.592822265625000000e+03
-8.593057617187500000e+03
-8.593587890625000000e+03
-8.593699218750000000e+03
-8.592241210937500000e+03
-8.592103515625000000e+03
-8.591969726562500000e+03
-8.591513671875000000e+03
-8.591238281250000000e+03
-8.591569335937500000e+03
-8.592498046875000000e+03
-8.592786132812500000e+03
-8.593174804687500000e+03
-8.593671875000000000e+03
-8.593461914062500000e+03
-8.592452148437500000e+03
-8.592135742187500000e+03
-8.591221679687500000e+03
-8.590960937500000000e+03
-8.590732421875000000e+03
-8.590231445312500000e+03
-8.590067382812500000e+03
-8.589940429687500000e+03
-8.589833984375000000e+03
-8.589735351562500000e+03
-8.589439453125000000e+03
-8.588878906250000000e+03
-8.588669921875000000e+03
-8.588398437500000000e+03
-8.588383789062500000e+03
-8.588561523437500000e+03
-8.588756835937500000e+03
-8.589076171875000000e+03
-8.590308593750000000e+03
-8.590426757812500000e+03
-8.590788085937500000e+03
-8.591146484375000000e+03
-8.591474609375000000e+03
-8.591571289062500000e+03
-8.591879882812500000e+03
-8.591822265625000000e+03
-8.591653320312500000e+03
-8.588781250000000000e+03
-8.588880859375000000e+03
-8.589192382812500000e+03
-8.591917968750000000e+03
-8.592032226562500000e+03
-8.591807617187500000e+03
-8.590363281250000000e+03
-8.589914062500000000e+03
-8.589742187500000000e+03
-8.589780273437500000e+03
-8.590007812500000000e+03
-8.590540039062500000e+03
-8.590728515625000000e+03
-8.590894531250000000e+03
-8.591013671875000000e+03
-8.591789062500000000e+03
-8.592110351562500000e+03
-8.592732421875000000e+03
-8.592255859375000000e+03
-8.592029296875000000e+03
-8.591518554687500000e+03
-8.590319335937500000e+03
-8.590044921875000000e+03
-8.589933593750000000e+03
-8.589990234375000000e+03
-8.590021484375000000e+03
-8.590389648437500000e+03
-8.590797851562500000e+03
-8.590579101562500000e+03
-8.590270507812500000e+03
-8.590176757812500000e+03
-8.588545898437500000e+03
-8.587983398437500000e+03
-8.587951171875000000e+03
-8.587951171875000000e+03
-8.588355468750000000e+03
-8.588508789062500000e+03
-8.589485351562500000e+03
-8.589582031250000000e+03
-8.590288085937500000e+03
-8.590700195312500000e+03
-8.591087890625000000e+03
-8.591177734375000000e+03
-8.591263671875000000e+03
-8.591623046875000000e+03
-8.591838867187500000e+03
-8.591891601562500000e+03
-8.591883789062500000e+03
-8.591535156250000000e+03
-8.591272460937500000e+03
-8.591055664062500000e+03
-8.588188476562500000e+03
-8.588630859375000000e+03
-8.588895507812500000e+03
-8.589817382812500000e+03
-8.589893554687500000e+03
-8.589924804687500000e+03
-8.590098632812500000e+03
-8.590111328125000000e+03
-8.590194335937500000e+03
-8.590211914062500000e+03
-8.590210937500000000e+03
-8.590192382812500000e+03
-8.590143554687500000e+03
-8.590060546875000000e+03
-8.589092773437500000e+03
-8.588940429687500000e+03
-8.588962890625000000e+03
-8.589652343750000000e+03
-8.589744140625000000e+03
-8.589837890625000000e+03
-8.589934570312500000e+03
-8.590585937500000000e+03
-8.590730468750000000e+03
-8.590899414062500000e+03
-8.590910156250000000e+03
-8.590851562500000000e+03
-8.590305664062500000e+03
-8.589656250000000000e+03
-8.589466796875000000e+03
-8.589268554687500000e+03
-8.587159179687500000e+03
-8.586785156250000000e+03
-8.586451171875000000e+03
-8.585923828125000000e+03
-8.585557617187500000e+03
-8.585498046875000000e+03
-8.585511718750000000e+03
-8.586275390625000000e+03
-8.587141601562500000e+03
-8.587202148437500000e+03
-8.587257812500000000e+03
-8.587444335937500000e+03
-8.587551757812500000e+03
-8.587726562500000000e+03
-8.587857421875000000e+03
-8.588142578125000000e+03
-8.588263671875000000e+03
-8.588669921875000000e+03
-8.589136718750000000e+03
-8.589052734375000000e+03
-8.589020507812500000e+03
-8.588938476562500000e+03
-8.588959960937500000e+03
-8.589011718750000000e+03
-8.588936523437500000e+03
-8.588253906250000000e+03
-8.587993164062500000e+03
-8.587909179687500000e+03
-8.587159179687500000e+03
-8.587170898437500000e+03
-8.587243164062500000e+03
-8.587257812500000000e+03
-8.587346679687500000e+03
-8.587628906250000000e+03
-8.587670898437500000e+03
-8.587766601562500000e+03
-8.587882812500000000e+03
-8.590188476562500000e+03
-8.590459960937500000e+03
-8.590583984375000000e+03
-8.590893554687500000e+03
-8.590926757812500000e+03
-8.590454101562500000e+03
-8.590401367187500000e+03
-8.590250000000000000e+03
-8.590293945312500000e+03
-8.590229492187500000e+03
-8.590182617187500000e+03
-8.589904296875000000e+03
-8.589613281250000000e+03
-8.589395507812500000e+03
-8.588734375000000000e+03
-8.588109375000000000e+03
-8.588182617187500000e+03
-8.588379882812500000e+03
-8.588404296875000000e+03
-8.588591796875000000e+03
-8.588621093750000000e+03
-8.588652343750000000e+03
-8.588852539062500000e+03
-8.588939453125000000e+03
-8.588905273437500000e+03
-8.588844726562500000e+03
-8.588829101562500000e+03
-8.589288085937500000e+03
-8.589367187500000000e+03
-8.589541992187500000e+03
-8.589637695312500000e+03
-8.589837890625000000e+03
-8.590892578125000000e+03
-8.590983398437500000e+03
-8.591081054687500000e+03
-8.590957031250000000e+03
-8.590910156250000000e+03
-8.591005859375000000e+03
-8.591064453125000000e+03
-8.591208007812500000e+03
-8.591431640625000000e+03
-8.591449218750000000e+03
-8.591463867187500000e+03
-8.591322265625000000e+03
-8.592028320312500000e+03
-8.592283203125000000e+03
-8.592637695312500000e+03
-8.592229492187500000e+03
-8.591114257812500000e+03
-8.590617187500000000e+03
-8.590633789062500000e+03
-8.590808593750000000e+03
-8.590848632812500000e+03
-8.590927734375000000e+03
-8.591134765625000000e+03
-8.591020507812500000e+03
-8.590973632812500000e+03
-8.589993164062500000e+03
-8.589617187500000000e+03
-8.589762695312500000e+03
-8.589796875000000000e+03
-8.589900390625000000e+03
-8.589960937500000000e+03
-8.590040039062500000e+03
-8.589838867187500000e+03
-8.589797851562500000e+03
-8.589091796875000000e+03
-8.589087890625000000e+03
-8.589022460937500000e+03
-8.588993164062500000e+03
-8.588796875000000000e+03
-8.588365234375000000e+03
-8.587921875000000000e+03
-8.587597656250000000e+03
-8.587778320312500000e+03
-8.588399414062500000e+03
-8.588487304687500000e+03
-8.588500976562500000e+03
-8.588498046875000000e+03
-8.588483398437500000e+03
-8.588148437500000000e+03
-8.588232421875000000e+03
-8.588367187500000000e+03
-8.588396484375000000e+03
-8.588382812500000000e+03
-8.588298828125000000e+03
-8.588151367187500000e+03
-8.588011718750000000e+03
-8.587961914062500000e+03
-8.587912109375000000e+03
-8.587862304687500000e+03
-8.587765625000000000e+03
-8.587455078125000000e+03
-8.587455078125000000e+03
-8.587450195312500000e+03
-8.587387695312500000e+03
-8.587363281250000000e+03
-8.587323242187500000e+03
-8.587328125000000000e+03
-8.587472656250000000e+03
-8.587871093750000000e+03
-8.588451171875000000e+03
-8.588529296875000000e+03
-8.588564453125000000e+03
-8.588628906250000000e+03
-8.588658203125000000e+03
-8.588711914062500000e+03
-8.588802734375000000e+03
-8.588918945312500000e+03
-8.588935546875000000e+03
-8.588950195312500000e+03
-8.588971679687500000e+03
-8.588973632812500000e+03
-8.588952148437500000e+03
-8.589098632812500000e+03
-8.589182617187500000e+03
-8.590081054687500000e+03
-8.590390625000000000e+03
-8.590543945312500000e+03
-8.591086914062500000e+03
-8.591475585937500000e+03
-8.591286132812500000e+03
-8.590976562500000000e+03
-8.589424804687500000e+03
-8.589375976562500000e+03
-8.589344726562500000e+03
-8.589621093750000000e+03
-8.589700195312500000e+03
-8.590175781250000000e+03
-8.590291992187500000e+03
-8.590352539062500000e+03
-8.590001953125000000e+03
-8.589998046875000000e+03
-8.590138671875000000e+03
-8.591131835937500000e+03
-8.591966796875000000e+03
-8.592183593750000000e+03
-8.592208984375000000e+03
-8.592235351562500000e+03
-8.592136718750000000e+03
-8.591919921875000000e+03
-8.591717773437500000e+03
-8.590967773437500000e+03
-8.590789062500000000e+03
-8.590552734375000000e+03
-8.590517578125000000e+03
-8.590409179687500000e+03
-8.590413085937500000e+03
-8.590473632812500000e+03
-8.590499023437500000e+03
-8.590759765625000000e+03
-8.590851562500000000e+03
-8.591031250000000000e+03
-8.591149414062500000e+03
-8.591293945312500000e+03
-8.591220703125000000e+03
-8.591187500000000000e+03
-8.590946289062500000e+03
-8.590818359375000000e+03
-8.590676757812500000e+03
-8.590052734375000000e+03
-8.589902343750000000e+03
-8.589895507812500000e+03
-8.589947265625000000e+03
-8.590082031250000000e+03
-8.590326171875000000e+03
-8.590625976562500000e+03
-8.590714843750000000e+03
-8.590749023437500000e+03
-8.590386718750000000e+03
-8.590020507812500000e+03
-8.589954101562500000e+03
-8.589892578125000000e+03
-8.589837890625000000e+03
-8.589791015625000000e+03
-8.589779296875000000e+03
-8.590128906250000000e+03
-8.590457031250000000e+03
-8.590227539062500000e+03
-8.589684570312500000e+03
-8.589560546875000000e+03
-8.589207031250000000e+03
-8.589192382812500000e+03
-8.589268554687500000e+03
-8.589302734375000000e+03
-8.589437500000000000e+03
-8.589821289062500000e+03
-8.589972656250000000e+03
-8.590130859375000000e+03
-8.590211914062500000e+03
-8.590539062500000000e+03
-8.590700195312500000e+03
-8.590928710937500000e+03
-8.591128906250000000e+03
-8.591281250000000000e+03
-8.591378906250000000e+03
-8.591013671875000000e+03
-8.590513671875000000e+03
-8.589527343750000000e+03
-8.589678710937500000e+03
-8.589819335937500000e+03
-8.589823242187500000e+03
-8.589823242187500000e+03
-8.589875976562500000e+03
-8.589925781250000000e+03
-8.590105468750000000e+03
-8.590214843750000000e+03
-8.590306640625000000e+03
-8.590307617187500000e+03
-8.590240234375000000e+03
-8.590052734375000000e+03
-8.589337890625000000e+03
-8.589090820312500000e+03
-8.588912109375000000e+03
-8.588966796875000000e+03
-8.589141601562500000e+03
-8.589195312500000000e+03
-8.589375000000000000e+03
-8.589438476562500000e+03
-8.590064453125000000e+03
-8.590302734375000000e+03
-8.590378906250000000e+03
-8.590498046875000000e+03
-8.590541015625000000e+03
-8.590557617187500000e+03
-8.590584960937500000e+03
-8.590577148437500000e+03
-8.590488281250000000e+03
-8.590304687500000000e+03
-8.589676757812500000e+03
-8.589609375000000000e+03
-8.589387695312500000e+03
-8.589233398437500000e+03
-8.589230468750000000e+03
-8.589223632812500000e+03
-8.589213867187500000e+03
-8.589153320312500000e+03
-8.588596679687500000e+03
-8.588560546875000000e+03
-8.588520507812500000e+03
-8.588547851562500000e+03
-8.588584960937500000e+03
-8.589907226562500000e+03
-8.590028320312500000e+03
-8.590082031250000000e+03
-8.590067382812500000e+03
-8.590019531250000000e+03
-8.589467773437500000e+03
-8.589389648437500000e+03
-8.588965820312500000e+03
-8.588626953125000000e+03
-8.588296875000000000e+03
-8.589842773437500000e+03
-8.590124023437500000e+03
-8.590409179687500000e+03
-8.591373046875000000e+03
-8.592086914062500000e+03
-8.592200195312500000e+03
-8.592238281250000000e+03
-8.592271484375000000e+03
-8.592267578125000000e+03
-8.591531250000000000e+03
-8.590607421875000000e+03
-8.590432617187500000e+03
-8.590536132812500000e+03
-8.590720703125000000e+03
-8.590813476562500000e+03
-8.590923828125000000e+03
-8.590933593750000000e+03
-8.590870117187500000e+03
-8.590788085937500000e+03
-8.590266601562500000e+03
-8.590234375000000000e+03
-8.590184570312500000e+03
-8.590162109375000000e+03
-8.590269531250000000e+03
-8.590401367187500000e+03
-8.590770507812500000e+03
-8.590947265625000000e+03
-8.591021484375000000e+03
-8.591037109375000000e+03
-8.591032226562500000e+03
-8.590985351562500000e+03
-8.590958984375000000e+03
-8.590621093750000000e+03
-8.590037109375000000e+03
-8.589894531250000000e+03
-8.589828125000000000e+03
-8.589764648437500000e+03
-8.589707031250000000e+03
-8.589563476562500000e+03
-8.589456054687500000e+03
-8.589444335937500000e+03
-8.589593750000000000e+03
-8.589573242187500000e+03
-8.589557617187500000e+03
-8.589537109375000000e+03
-8.589484375000000000e+03
-8.589179687500000000e+03
-8.589124023437500000e+03
-8.589005859375000000e+03
-8.588818359375000000e+03
-8.588629882812500000e+03
-8.588242187500000000e+03
-8.588205078125000000e+03
-8.588216796875000000e+03
-8.588324218750000000e+03
-8.588382812500000000e+03
-8.588452148437500000e+03
-8.588950195312500000e+03
-8.589625000000000000e+03
-8.591212890625000000e+03
-8.590964843750000000e+03
-8.590729492187500000e+03
-8.590106445312500000e+03
-8.589510742187500000e+03
-8.588857421875000000e+03
-8.589115234375000000e+03
-8.589783203125000000e+03
-8.590673828125000000e+03
-8.590190429687500000e+03
-8.589892578125000000e+03
-8.589737304687500000e+03
-8.589264648437500000e+03
-8.588264648437500000e+03
-8.588113281250000000e+03
-8.587894531250000000e+03
-8.587902343750000000e+03
-8.587958007812500000e+03
-8.588009765625000000e+03
-8.588240234375000000e+03
-8.588243164062500000e+03
-8.588201171875000000e+03
-8.587505859375000000e+03
-8.586515625000000000e+03
-8.586384765625000000e+03
-8.586374023437500000e+03
-8.587222656250000000e+03
-8.589739257812500000e+03
-8.590153320312500000e+03
-8.591445312500000000e+03
-8.591348632812500000e+03
-8.590977539062500000e+03
-8.590042968750000000e+03
-8.588334960937500000e+03
-8.586657226562500000e+03
-8.586453125000000000e+03
-8.586261718750000000e+03
-8.585923828125000000e+03
-8.585326171875000000e+03
-8.585441406250000000e+03
-8.585928710937500000e+03
-8.586180664062500000e+03
-8.586313476562500000e+03
-8.586450195312500000e+03
-8.586730468750000000e+03
-8.587950195312500000e+03
-8.588406250000000000e+03
-8.589166992187500000e+03
-8.589307617187500000e+03
-8.589251953125000000e+03
-8.589094726562500000e+03
-8.589044921875000000e+03
-8.588818359375000000e+03
-8.588536132812500000e+03
-8.588488281250000000e+03
-8.588319335937500000e+03
-8.588332031250000000e+03
-8.588355468750000000e+03
-8.588450195312500000e+03
-8.588765625000000000e+03
-8.588976562500000000e+03
-8.589106445312500000e+03
-8.589208984375000000e+03
-8.589245117187500000e+03
-8.589282226562500000e+03
-8.589679687500000000e+03
-8.589826171875000000e+03
-8.589920898437500000e+03
-8.589966796875000000e+03
-8.590165039062500000e+03
-8.590278320312500000e+03
-8.590264648437500000e+03
-8.590172851562500000e+03
-8.590050781250000000e+03
-8.590089843750000000e+03
-8.590376953125000000e+03
-8.590693359375000000e+03
-8.590801757812500000e+03
-8.590861328125000000e+03
-8.591687500000000000e+03
-8.591910156250000000e+03
-8.592267578125000000e+03
-8.592861328125000000e+03
-8.593398437500000000e+03
-8.593499023437500000e+03
-8.593557617187500000e+03
-8.593531250000000000e+03
-8.593391601562500000e+03
-8.593135742187500000e+03
-8.591697265625000000e+03
-8.590908203125000000e+03
-8.590007812500000000e+03
-8.590044921875000000e+03
-8.590329101562500000e+03
-8.590589843750000000e+03
-8.590685546875000000e+03
-8.591391601562500000e+03
-8.591681640625000000e+03
-8.591863281250000000e+03
-8.591950195312500000e+03
-8.592614257812500000e+03
-8.592690429687500000e+03
-8.592768554687500000e+03
-8.592752929687500000e+03
-8.592664062500000000e+03
-8.592562500000000000e+03
-8.592344726562500000e+03
-8.592158203125000000e+03
-8.591703125000000000e+03
-8.591316406250000000e+03
-8.590925781250000000e+03
-8.590151367187500000e+03
-8.590238281250000000e+03
-8.590489257812500000e+03
-8.591433593750000000e+03
-8.591745117187500000e+03
-8.591912109375000000e+03
-8.591895507812500000e+03
-8.591833984375000000e+03
-8.591550781250000000e+03
-8.591233398437500000e+03
-8.590711914062500000e+03
-8.590627929687500000e+03
-8.590395507812500000e+03
-8.590021484375000000e+03
-8.589968750000000000e+03
-8.589945312500000000e+03
-8.590016601562500000e+03
-8.590158203125000000e+03
-8.590279296875000000e+03
-8.590261718750000000e+03
-8.590085937500000000e+03
-8.589719726562500000e+03
-8.591523437500000000e+03
-8.591839843750000000e+03
-8.592154296875000000e+03
-8.591485351562500000e+03
-8.591227539062500000e+03
-8.589122070312500000e+03
-8.589040039062500000e+03
-8.588967773437500000e+03
-8.588741210937500000e+03
-8.588719726562500000e+03
-8.588690429687500000e+03
-8.588711914062500000e+03
-8.588904296875000000e+03
-8.588958984375000000e+03
-8.589203125000000000e+03
-8.589372070312500000e+03
-8.589501953125000000e+03
-8.589543945312500000e+03
-8.589914062500000000e+03
-8.589957031250000000e+03
-8.589939453125000000e+03
-8.589933593750000000e+03
-8.589926757812500000e+03
-8.589899414062500000e+03
-8.589948242187500000e+03
-8.590530273437500000e+03
-8.590800781250000000e+03
-8.591000976562500000e+03
-8.591009765625000000e+03
-8.591013671875000000e+03
-8.590975585937500000e+03
-8.590103515625000000e+03
-8.589647460937500000e+03
-8.589336914062500000e+03
-8.589123046875000000e+03
-8.589015625000000000e+03
-8.588517578125000000e+03
-8.588148437500000000e+03
-8.587923828125000000e+03
-8.587901367187500000e+03
-8.587893554687500000e+03
-8.587780273437500000e+03
-8.587570312500000000e+03
-8.587409179687500000e+03
-8.587300781250000000e+03
-8.587382812500000000e+03
-8.587868164062500000e+03
-8.587938476562500000e+03
-8.588008789062500000e+03
-8.589103515625000000e+03
-8.589401367187500000e+03
-8.589511718750000000e+03
-8.589789062500000000e+03
-8.589751953125000000e+03
-8.589710937500000000e+03
-8.589363281250000000e+03
-8.589199218750000000e+03
-8.589144531250000000e+03
-8.588844726562500000e+03
-8.588803710937500000e+03
-8.588699218750000000e+03
-8.588620117187500000e+03
-8.588907226562500000e+03
-8.589153320312500000e+03
-8.589614257812500000e+03
-8.589811523437500000e+03
-8.589879882812500000e+03
-8.590090820312500000e+03
-8.590162109375000000e+03
-8.590750976562500000e+03
-8.590812500000000000e+03
-8.590833007812500000e+03
-8.590807617187500000e+03
-8.590362304687500000e+03
-8.589850585937500000e+03
-8.589479492187500000e+03
-8.588981445312500000e+03
-8.588841796875000000e+03
-8.588703125000000000e+03
-8.588090820312500000e+03
-8.587971679687500000e+03
-8.588015625000000000e+03
-8.588177734375000000e+03
-8.590225585937500000e+03
-8.590515625000000000e+03
-8.590900390625000000e+03
-8.591118164062500000e+03
-8.591213867187500000e+03
-8.591301757812500000e+03
-8.591451171875000000e+03
-8.591513671875000000e+03
-8.591568359375000000e+03
-8.591615234375000000e+03
-8.591654296875000000e+03
-8.591687500000000000e+03
-8.591665039062500000e+03
-8.591614257812500000e+03
-8.591621093750000000e+03
-8.591631835937500000e+03
-8.591690429687500000e+03
-8.591786132812500000e+03
-8.592149414062500000e+03
-8.592180664062500000e+03
-8.591935546875000000e+03
-8.591871093750000000e+03
-8.590781250000000000e+03
-8.590595703125000000e+03
-8.589969726562500000e+03
-8.589838867187500000e+03
-8.589789062500000000e+03
-8.589790039062500000e+03
-8.589799804687500000e+03
-8.589806640625000000e+03
-8.589830078125000000e+03
-8.589851562500000000e+03
-8.589795898437500000e+03
-8.589765625000000000e+03
-8.589852539062500000e+03
-8.589964843750000000e+03
-8.590283203125000000e+03
-8.590783203125000000e+03
-8.590957031250000000e+03
-8.591247070312500000e+03
-8.591360351562500000e+03
-8.591583007812500000e+03
-8.591637695312500000e+03
-8.591720703125000000e+03
-8.591723632812500000e+03
-8.591721679687500000e+03
-8.591674804687500000e+03
-8.591509765625000000e+03
-8.591189453125000000e+03
-8.591046875000000000e+03
-8.590999023437500000e+03
-8.590909179687500000e+03
-8.590719726562500000e+03
-8.590964843750000000e+03
-8.591105468750000000e+03
-8.591753906250000000e+03
-8.591889648437500000e+03
-8.592081054687500000e+03
-8.592130859375000000e+03
-8.592096679687500000e+03
-8.591754882812500000e+03
-8.590350585937500000e+03
-8.589327148437500000e+03
-8.590023437500000000e+03
-8.590085937500000000e+03
-8.590146484375000000e+03
-8.590487304687500000e+03
-8.590476562500000000e+03
-8.590420898437500000e+03
-8.590386718750000000e+03
-8.589183593750000000e+03
-8.589101562500000000e+03
-8.588932617187500000e+03
-8.588507812500000000e+03
-8.588349609375000000e+03
-8.588144531250000000e+03
-8.587934570312500000e+03
-8.587906250000000000e+03
-8.587909179687500000e+03
-8.587941406250000000e+03
-8.588122070312500000e+03
-8.588317382812500000e+03
-8.588642578125000000e+03
-8.588959960937500000e+03
-8.588997070312500000e+03
-8.589212890625000000e+03
-8.589730468750000000e+03
-8.589787109375000000e+03
-8.589889648437500000e+03
-8.590009765625000000e+03
-8.589998046875000000e+03
-8.589965820312500000e+03
-8.589585937500000000e+03
-8.589362304687500000e+03
-8.589232421875000000e+03
-8.589173828125000000e+03
-8.589125976562500000e+03
-8.588802734375000000e+03
-8.588746093750000000e+03
-8.588072265625000000e+03
-8.587885742187500000e+03
-8.587833007812500000e+03
-8.587785156250000000e+03
-8.587682617187500000e+03
-8.587655273437500000e+03
-8.587791015625000000e+03
-8.588045898437500000e+03
-8.588208984375000000e+03
-8.588385742187500000e+03
-8.588665039062500000e+03
-8.588850585937500000e+03
-8.588941406250000000e+03
-8.589031250000000000e+03
-8.589204101562500000e+03
-8.589367187500000000e+03
-8.589597656250000000e+03
-8.589887695312500000e+03
-8.590319335937500000e+03
-8.590668945312500000e+03
-8.590848632812500000e+03
-8.590944335937500000e+03
-8.590983398437500000e+03
-8.591015625000000000e+03
-8.590901367187500000e+03
-8.590768554687500000e+03
-8.590717773437500000e+03
-8.590686523437500000e+03
-8.590777343750000000e+03
-8.590959960937500000e+03
-8.591136718750000000e+03
-8.591262695312500000e+03
-8.591325195312500000e+03
-8.591500976562500000e+03
-8.591553710937500000e+03
-8.591727539062500000e+03
-8.591674804687500000e+03
-8.591530273437500000e+03
-8.590848632812500000e+03
-8.590245117187500000e+03
-8.589760742187500000e+03
-8.589686523437500000e+03
-8.589855468750000000e+03
-8.590268554687500000e+03
-8.590581054687500000e+03
-8.590655273437500000e+03
-8.591195312500000000e+03
-8.591199218750000000e+03
-8.591118164062500000e+03
-8.591089843750000000e+03
-8.591152343750000000e+03
-8.591267578125000000e+03
-8.591668945312500000e+03
-8.592115234375000000e+03
-8.592556640625000000e+03
-8.592777343750000000e+03
-8.592837890625000000e+03
-8.593005859375000000e+03
-8.593024414062500000e+03
-8.592995117187500000e+03
-8.592593750000000000e+03
-8.592363281250000000e+03
-8.591937500000000000e+03
-8.590312500000000000e+03
-8.589764648437500000e+03
-8.588990234375000000e+03
-8.588866210937500000e+03
-8.588496093750000000e+03
-8.588408203125000000e+03
-8.588454101562500000e+03
-8.589109375000000000e+03
-8.589648437500000000e+03
-8.590071289062500000e+03
-8.590210937500000000e+03
-8.590347656250000000e+03
-8.590732421875000000e+03
-8.590850585937500000e+03
