2.797545909881591797e+00 1.556599885225296021e-01 2.384760230779647827e-01 1.556599885225296021e-01 3.058706760406494141e+00 -4.138932526111602783e-01 2.384760230779647827e-01 -4.138932526111602783e-01 3.787512063980102539e+00
1.385943508148193359e+01 2.506811380386352539e+00 2.028041839599609375e+00 2.506811380386352539e+00 4.854420185089111328e+00 -4.590870380401611328e+00 2.028041839599609375e+00 -4.590870380401611328e+00 1.578578948974609375e+00
1.620467376708984375e+01 2.968064069747924805e+00 2.112231492996215820e+00 2.968064069747924805e+00 5.665179252624511719e+00 -5.147302627563476562e+00 2.112231492996215820e+00 -5.147302627563476562e+00 1.708540916442871094e+00
2.159846496582031250e+01 4.050647258758544922e+00 2.202968358993530273e+00 4.050647258758544922e+00 7.693990707397460938e+00 -6.379834175109863281e+00 2.202968358993530273e+00 -6.379834175109863281e+00 2.073430061340332031e+00
2.533372306823730469e+01 4.910041332244873047e+00 2.492583036422729492e+00 4.910041332244873047e+00 9.209615707397460938e+00 -7.616599559783935547e+00 2.492583036422729492e+00 -7.616599559783935547e+00 1.780844688415527344e+00
1.524070739746093750e+00 1.578143686056137085e-01 9.615981101989746094e+00 1.578143686056137085e-01 -2.428197383880615234e+00 -9.379609107971191406e+00 9.615981101989746094e+00 -9.379609107971191406e+00 -1.343814373016357422e+01
-1.169979572296142578e+01 -2.842693328857421875e+00 1.251358509063720703e+01 -2.842693328857421875e+00 -9.796328544616699219e+00 -9.015407562255859375e+00 1.251358509063720703e+01 -9.015407562255859375e+00 -2.127642631530761719e+01
-2.316532135009765625e+01 -5.476077079772949219e+00 1.450456428527832031e+01 -5.476077079772949219e+00 -1.666717338562011719e+01 -8.415475845336914062e+00 1.450456428527832031e+01 -8.415475845336914062e+00 -2.853089141845703125e+01
-2.597924232482910156e+01 -6.117485046386718750e+00 1.486597728729248047e+01 -6.117485046386718750e+00 -1.841851997375488281e+01 -8.220690727233886719e+00 1.486597728729248047e+01 -8.220690727233886719e+00 -3.034691810607910156e+01
-3.306593704223632812e+01 -7.719841480255126953e+00 1.540025329589843750e+01 -7.719841480255126953e+00 -2.287658691406250000e+01 -7.660352230072021484e+00 1.540025329589843750e+01 -7.660352230072021484e+00 -3.495209121704101562e+01
-3.498595428466796875e+01 -8.158393859863281250e+00 1.538649177551269531e+01 -8.158393859863281250e+00 -2.406196784973144531e+01 -7.484372138977050781e+00 1.538649177551269531e+01 -7.484372138977050781e+00 -3.614470672607421875e+01
-3.586371231079101562e+01 -8.357866287231445312e+00 1.534268665313720703e+01 -8.357866287231445312e+00 -2.459519958496093750e+01 -7.396305561065673828e+00 1.534268665313720703e+01 -7.396305561065673828e+00 -3.667292404174804688e+01
-4.001649475097656250e+01 -9.313887596130371094e+00 1.467504501342773438e+01 -9.313887596130371094e+00 -2.694495010375976562e+01 -6.926672935485839844e+00 1.467504501342773438e+01 -6.926672935485839844e+00 -3.879935455322265625e+01
-4.288360214233398438e+01 -1.011076164245605469e+01 1.273518657684326172e+01 -1.011076164245605469e+01 -2.764950752258300781e+01 -6.402926445007324219e+00 1.273518657684326172e+01 -6.402926445007324219e+00 -3.866380691528320312e+01
-4.331468963623046875e+01 -1.035693264007568359e+01 1.143050193786621094e+01 -1.035693264007568359e+01 -2.695723915100097656e+01 -6.166327953338623047e+00 1.143050193786621094e+01 -6.166327953338623047e+00 -3.724620437622070312e+01
-4.188380432128906250e+01 -1.079372596740722656e+01 7.553646087646484375e+00 -1.079372596740722656e+01 -2.229783058166503906e+01 -5.269762516021728516e+00 7.553646087646484375e+00 -5.269762516021728516e+00 -2.971379089355468750e+01
-3.148948860168457031e+01 -1.125835704803466797e+01 -9.301163256168365479e-02 -1.125835704803466797e+01 -5.291887760162353516e+00 3.920119702816009521e-01 -9.301163256168365479e-02 3.920119702816009521e-01 -2.237516880035400391e+00
-2.995877075195312500e+01 -1.121284484863281250e+01 -8.300246000289916992e-01 -1.121284484863281250e+01 -3.340745687484741211e+00 1.488979935646057129e+00 -8.300246000289916992e-01 1.488979935646057129e+00 1.184238076210021973e+00
-2.343796539306640625e+01 -1.063380050659179688e+01 -3.721818685531616211e+00 -1.063380050659179688e+01 3.838501453399658203e+00 6.611316680908203125e+00 -3.721818685531616211e+00 6.611316680908203125e+00 1.426941680908203125e+01
-1.841699981689453125e+01 -9.699974060058593750e+00 -5.955338478088378906e+00 -9.699974060058593750e+00 8.197237968444824219e+00 1.055586433410644531e+01 -5.955338478088378906e+00 1.055586433410644531e+01 2.211219787597656250e+01
-1.677532005310058594e+01 -9.298800468444824219e+00 -6.726715564727783203e+00 -9.298800468444824219e+00 9.446743965148925781e+00 1.172092437744140625e+01 -6.726715564727783203e+00 1.172092437744140625e+01 2.414958381652832031e+01
-1.514282417297363281e+01 -8.851785659790039062e+00 -7.529607295989990234e+00 -8.851785659790039062e+00 1.059949779510498047e+01 1.275718498229980469e+01 -7.529607295989990234e+00 1.275718498229980469e+01 2.584216690063476562e+01
-1.274616050720214844e+01 -8.101540565490722656e+00 -8.758597373962402344e+00 -8.101540565490722656e+00 1.219498062133789062e+01 1.403655052185058594e+01 -8.758597373962402344e+00 1.403655052185058594e+01 2.771172142028808594e+01
-1.119252872467041016e+01 -7.560462951660156250e+00 -9.588242530822753906e+00 -7.560462951660156250e+00 1.319364452362060547e+01 1.467275142669677734e+01 -9.588242530822753906e+00 1.467275142669677734e+01 2.853392028808593750e+01
-1.041567993164062500e+01 -7.274824619293212891e+00 -1.000867176055908203e+01 -7.274824619293212891e+00 1.367382335662841797e+01 1.491526794433593750e+01 -1.000867176055908203e+01 1.491526794433593750e+01 2.881013870239257812e+01
-9.635975837707519531e+00 -6.978472709655761719e+00 -1.043004035949707031e+01 -6.978472709655761719e+00 1.414544486999511719e+01 1.511113357543945312e+01 -1.043004035949707031e+01 1.511113357543945312e+01 2.900327682495117188e+01
-8.856761932373046875e+00 -6.673657417297363281e+00 -1.085034084320068359e+01 -6.673657417297363281e+00 1.461200046539306641e+01 1.526486873626708984e+01 -1.085034084320068359e+01 1.526486873626708984e+01 2.912390136718750000e+01
-8.083562850952148438e+00 -6.363315582275390625e+00 -1.126654434204101562e+01 -6.363315582275390625e+00 1.507623577117919922e+01 1.537940979003906250e+01 -1.126654434204101562e+01 1.537940979003906250e+01 2.917795753479003906e+01
-2.309834063053131104e-01 -2.790776491165161133e+00 -1.487098217010498047e+01 -2.790776491165161133e+00 1.968461227416992188e+01 1.439814662933349609e+01 -1.487098217010498047e+01 1.439814662933349609e+01 2.658122444152832031e+01
5.831779956817626953e+00 5.294091701507568359e-01 -1.616148567199707031e+01 5.294091701507568359e-01 2.236415672302246094e+01 1.230729389190673828e+01 -1.616148567199707031e+01 1.230729389190673828e+01 2.276450347900390625e+01
1.040161514282226562e+01 3.585763931274414062e+00 -1.618166923522949219e+01 3.585763931274414062e+00 2.331333160400390625e+01 1.071439743041992188e+01 -1.618166923522949219e+01 1.071439743041992188e+01 1.961754989624023438e+01
1.222210693359375000e+01 4.990492820739746094e+00 -1.598971462249755859e+01 4.990492820739746094e+00 2.335873413085937500e+01 1.012866306304931641e+01 -1.598971462249755859e+01 1.012866306304931641e+01 1.831249237060546875e+01
1.968539428710937500e+01 2.291073036193847656e+01 -1.120695495605468750e+01 2.291073036193847656e+01 4.786731719970703125e+00 4.596523761749267578e+00 -1.120695495605468750e+01 4.596523761749267578e+00 -3.359609127044677734e+00
1.507531070709228516e+01 2.564670372009277344e+01 -7.989504814147949219e+00 2.564670372009277344e+01 -1.353607559204101562e+01 -5.093161463737487793e-01 -7.989504814147949219e+00 -5.093161463737487793e-01 -1.709688568115234375e+01
1.469292831420898438e+01 2.571998214721679688e+01 -7.622368335723876953e+00 2.571998214721679688e+01 -1.472929859161376953e+01 -8.819063901901245117e-01 -7.622368335723876953e+00 -8.819063901901245117e-01 -1.799418258666992188e+01
1.126510334014892578e+01 2.563563346862792969e+01 -4.546607494354248047e+00 2.563563346862792969e+01 -2.205764579772949219e+01 -3.273782968521118164e+00 -4.546607494354248047e+00 -3.273782968521118164e+00 -2.377613449096679688e+01
9.971843719482421875e+00 2.539197158813476562e+01 -3.547152757644653320e+00 2.539197158813476562e+01 -2.379837417602539062e+01 -3.879058599472045898e+00 -3.547152757644653320e+00 -3.879058599472045898e+00 -2.525883102416992188e+01
8.512484550476074219e+00 2.501714324951171875e+01 -2.506567001342773438e+00 2.501714324951171875e+01 -2.536980247497558594e+01 -4.454825401306152344e+00 -2.506567001342773438e+00 -4.454825401306152344e+00 -2.666630363464355469e+01
5.155997753143310547e+00 2.392797088623046875e+01 -3.828752636909484863e-01 2.392797088623046875e+01 -2.803638648986816406e+01 -5.532219409942626953e+00 -3.828752636909484863e-01 -5.532219409942626953e+00 -2.924815559387207031e+01
2.353076934814453125e+00 2.280706214904785156e+01 1.196352481842041016e+00 2.280706214904785156e+01 -2.961796569824218750e+01 -6.277358531951904297e+00 1.196352481842041016e+00 -6.277358531951904297e+00 -3.091286849975585938e+01
1.378081083297729492e+00 2.237606620788574219e+01 1.710883975028991699e+00 2.237606620788574219e+01 -3.005966186523437500e+01 -6.518482685089111328e+00 1.710883975028991699e+00 -6.518482685089111328e+00 -3.141268920898437500e+01
-1.608608126640319824e+00 2.094593811035156250e+01 3.200120687484741211e+00 2.094593811035156250e+01 -3.113254547119140625e+01 -7.232810020446777344e+00 3.200120687484741211e+00 -7.232810020446777344e+00 -3.275744247436523438e+01
-6.495892524719238281e+00 1.817466354370117188e+01 5.457312107086181641e+00 1.817466354370117188e+01 -3.209320831298828125e+01 -8.398872375488281250e+00 5.457312107086181641e+00 -8.398872375488281250e+00 -3.428063964843750000e+01
-1.008477497100830078e+01 1.572797203063964844e+01 7.006127357482910156e+00 1.572797203063964844e+01 -3.204905319213867188e+01 -9.305583953857421875e+00 7.006127357482910156e+00 -9.305583953857421875e+00 -3.481290817260742188e+01
-1.384119701385498047e+01 1.253169918060302734e+01 8.626780509948730469e+00 1.253169918060302734e+01 -3.097294235229492188e+01 -1.040651226043701172e+01 8.626780509948730469e+00 -1.040651226043701172e+01 -3.452800369262695312e+01
-1.448447895050048828e+01 1.188369846343994141e+01 8.909734725952148438e+00 1.188369846343994141e+01 -3.061722755432128906e+01 -1.062286376953125000e+01 8.909734725952148438e+00 -1.062286376953125000e+01 -3.433806610107421875e+01
-1.565639972686767578e+01 1.059065341949462891e+01 9.442799568176269531e+00 1.059065341949462891e+01 -2.976752662658691406e+01 -1.104267978668212891e+01 9.442799568176269531e+00 -1.104267978668212891e+01 -3.383673858642578125e+01
-1.710275650024414062e+01 8.666714668273925781e+00 1.017017269134521484e+01 8.666714668273925781e+00 -2.816573333740234375e+01 -1.164201831817626953e+01 1.017017269134521484e+01 -1.164201831817626953e+01 -3.278734970092773438e+01
-1.818867492675781250e+01 6.775532722473144531e+00 1.080594444274902344e+01 6.775532722473144531e+00 -2.619129180908203125e+01 -1.220991706848144531e+01 1.080594444274902344e+01 -1.220991706848144531e+01 -3.138213539123535156e+01
-1.847748756408691406e+01 6.152096748352050781e+00 1.100231075286865234e+01 6.152096748352050781e+00 -2.545147323608398438e+01 -1.238944816589355469e+01 1.100231075286865234e+01 -1.238944816589355469e+01 -3.083500862121582031e+01
-1.938104820251464844e+01 3.147482872009277344e+00 1.189506530761718750e+01 3.147482872009277344e+00 -2.120572853088378906e+01 -1.319967174530029297e+01 1.189506530761718750e+01 -1.319967174530029297e+01 -2.756508445739746094e+01
-1.949570274353027344e+01 1.997642874717712402e+00 1.222130203247070312e+01 1.997642874717712402e+00 -1.927767372131347656e+01 -1.348308372497558594e+01 1.222130203247070312e+01 -1.348308372497558594e+01 -2.601033020019531250e+01
-1.938286781311035156e+01 -1.899502128362655640e-01 1.283429336547851562e+01 -1.899502128362655640e-01 -1.507887172698974609e+01 -1.396471309661865234e+01 1.283429336547851562e+01 -1.396471309661865234e+01 -2.252894210815429688e+01
-1.674211692810058594e+01 -5.630269050598144531e+00 1.449581050872802734e+01 -5.630269050598144531e+00 -4.613896012306213379e-01 -1.471529579162597656e+01 1.449581050872802734e+01 -1.471529579162597656e+01 -9.190776824951171875e+00
-1.519923686981201172e+01 -7.053669452667236328e+00 1.499443626403808594e+01 -7.053669452667236328e+00 4.794292926788330078e+00 -1.470892238616943359e+01 1.499443626403808594e+01 -1.470892238616943359e+01 -3.921036720275878906e+00
-1.325293922424316406e+01 -8.314668655395507812e+00 1.546368122100830078e+01 -8.314668655395507812e+00 1.000649833679199219e+01 -1.456552982330322266e+01 1.546368122100830078e+01 -1.456552982330322266e+01 1.626628875732421875e+00
-8.591872215270996094e+00 -1.013497638702392578e+01 1.605558204650878906e+01 -1.013497638702392578e+01 1.847727966308593750e+01 -1.385494136810302734e+01 1.605558204650878906e+01 -1.385494136810302734e+01 1.157565402984619141e+01
3.687041997909545898e-02 -1.157695293426513672e+01 1.605755043029785156e+01 -1.157695293426513672e+01 2.647083091735839844e+01 -1.182750511169433594e+01 1.605755043029785156e+01 -1.182750511169433594e+01 2.328751754760742188e+01
5.406225681304931641e+00 -1.175332450866699219e+01 1.547847938537597656e+01 -1.175332450866699219e+01 2.889276695251464844e+01 -1.015470314025878906e+01 1.547847938537597656e+01 -1.015470314025878906e+01 2.833075523376464844e+01
1.102060413360595703e+01 -1.128017997741699219e+01 1.408703708648681641e+01 -1.128017997741699219e+01 2.973602104187011719e+01 -7.796555042266845703e+00 1.408703708648681641e+01 -7.796555042266845703e+00 3.218358993530273438e+01
1.472934436798095703e+01 -1.014760589599609375e+01 1.197601795196533203e+01 -1.014760589599609375e+01 2.865044975280761719e+01 -5.262264251708984375e+00 1.197601795196533203e+01 -5.262264251708984375e+00 3.324827575683593750e+01
1.515360355377197266e+01 -9.905185699462890625e+00 1.156720161437988281e+01 -9.905185699462890625e+00 2.834078216552734375e+01 -4.829916477203369141e+00 1.156720161437988281e+01 -4.829916477203369141e+00 3.315636825561523438e+01
1.585714626312255859e+01 -9.388457298278808594e+00 1.071415901184082031e+01 -9.388457298278808594e+00 2.762611961364746094e+01 -3.963965892791748047e+00 1.071415901184082031e+01 -3.963965892791748047e+00 3.276669692993164062e+01
1.664900779724121094e+01 -8.535304069519042969e+00 9.355796813964843750e+00 -8.535304069519042969e+00 2.632549285888671875e+01 -2.718945503234863281e+00 9.355796813964843750e+00 -2.718945503234863281e+00 3.171804046630859375e+01
1.739462471008300781e+01 -6.970442295074462891e+00 6.888543605804443359e+00 -6.970442295074462891e+00 2.370188522338867188e+01 -7.353190779685974121e-01 6.888543605804443359e+00 -7.353190779685974121e-01 2.886041831970214844e+01
1.753294181823730469e+01 -6.310333251953125000e+00 5.855373382568359375e+00 -6.310333251953125000e+00 2.247550773620605469e+01 1.299107447266578674e-02 5.855373382568359375e+00 1.299107447266578674e-02 2.736360740661621094e+01
1.755721282958984375e+01 -5.340094566345214844e+00 4.271347045898437500e+00 -5.340094566345214844e+00 2.039179611206054688e+01 1.106351137161254883e+00 4.271347045898437500e+00 1.106351137161254883e+00 2.476685714721679688e+01
1.698961448669433594e+01 -3.808386802673339844e+00 1.580282688140869141e+00 -3.808386802673339844e+00 1.617104148864746094e+01 2.872626781463623047e+00 1.580282688140869141e+00 2.872626781463623047e+00 1.947515678405761719e+01
1.489062404632568359e+01 -1.940259575843811035e+00 -2.088471889495849609e+00 -1.940259575843811035e+00 8.643349647521972656e+00 5.566632747650146484e+00 -2.088471889495849609e+00 5.566632747650146484e+00 1.012956809997558594e+01
1.082836055755615234e+01 7.784290313720703125e-01 -6.716855049133300781e+00 7.784290313720703125e-01 -3.076408624649047852e+00 9.880001068115234375e+00 -6.716855049133300781e+00 9.880001068115234375e+00 -5.076360225677490234e+00
9.660243988037109375e+00 2.086920261383056641e+00 -8.278055191040039062e+00 2.086920261383056641e+00 -7.003907680511474609e+00 1.148758506774902344e+01 -8.278055191040039062e+00 1.148758506774902344e+01 -1.073783683776855469e+01
9.089303016662597656e+00 3.932999849319458008e+00 -9.998190879821777344e+00 3.932999849319458008e+00 -1.067861175537109375e+01 1.319915485382080078e+01 -9.998190879821777344e+00 1.319915485382080078e+01 -1.685593605041503906e+01
9.114196777343750000e+00 4.334827423095703125e+00 -1.031405735015869141e+01 4.334827423095703125e+00 -1.123722267150878906e+01 1.349004745483398438e+01 -1.031405735015869141e+01 1.349004745483398438e+01 -1.791639328002929688e+01
9.922682762145996094e+00 6.488367080688476562e+00 -1.181004714965820312e+01 6.488367080688476562e+00 -1.306757736206054688e+01 1.465657806396484375e+01 -1.181004714965820312e+01 1.465657806396484375e+01 -2.234991073608398438e+01
1.584432029724121094e+01 1.399538612365722656e+01 -1.666577720642089844e+01 1.399538612365722656e+01 -1.017609596252441406e+01 1.523151874542236328e+01 -1.666577720642089844e+01 1.523151874542236328e+01 -2.674861526489257812e+01
1.648107337951660156e+01 1.502298450469970703e+01 -1.749433898925781250e+01 1.502298450469970703e+01 -9.115047454833984375e+00 1.494379806518554688e+01 -1.749433898925781250e+01 1.494379806518554688e+01 -2.640921020507812500e+01
1.845195388793945312e+01 2.035586547851562500e+01 -2.310620117187500000e+01 2.035586547851562500e+01 -2.677259445190429688e+00 1.113766384124755859e+01 -2.310620117187500000e+01 1.113766384124755859e+01 -2.078020286560058594e+01
1.854782676696777344e+01 2.102447319030761719e+01 -2.396208953857421875e+01 2.102447319030761719e+01 -1.967217087745666504e+00 1.019485092163085938e+01 -2.396208953857421875e+01 1.019485092163085938e+01 -1.933733177185058594e+01
1.479160022735595703e+01 2.154047012329101562e+01 -2.320153617858886719e+01 2.154047012329101562e+01 -3.809253692626953125e+00 3.117034673690795898e+00 -2.320153617858886719e+01 3.117034673690795898e+00 -2.010965824127197266e+00
1.447011566162109375e+01 2.125097274780273438e+01 -2.270694732666015625e+01 2.125097274780273438e+01 -3.997207164764404297e+00 3.085703372955322266e+00 -2.270694732666015625e+01 3.085703372955322266e+00 -1.245311975479125977e+00
1.415376853942871094e+01 2.093771743774414062e+01 -2.219264411926269531e+01 2.093771743774414062e+01 -4.151105880737304688e+00 3.072040796279907227e+00 -2.219264411926269531e+01 3.072040796279907227e+00 -4.882965981960296631e-01
1.156487655639648438e+01 1.550251579284667969e+01 -1.589526271820068359e+01 1.550251579284667969e+01 -2.153834104537963867e+00 3.418634176254272461e+00 -1.589526271820068359e+01 3.418634176254272461e+00 9.035800933837890625e+00
1.145624351501464844e+01 1.500635337829589844e+01 -1.551066207885742188e+01 1.500635337829589844e+01 -1.692845463752746582e+00 3.437145709991455078e+00 -1.551066207885742188e+01 3.437145709991455078e+00 9.741828918457031250e+00
9.891213417053222656e+00 9.282454490661621094e+00 -1.153846359252929688e+01 9.282454490661621094e+00 5.995733261108398438e+00 4.052818298339843750e+00 -1.153846359252929688e+01 4.052818298339843750e+00 1.722467613220214844e+01
8.961259841918945312e+00 7.687163352966308594e+00 -1.021827316284179688e+01 7.687163352966308594e+00 9.045362472534179688e+00 4.431363105773925781e+00 -1.021827316284179688e+01 4.431363105773925781e+00 1.921558189392089844e+01
5.158088207244873047e+00 2.934124469757080078e+00 -6.138951301574707031e+00 2.934124469757080078e+00 1.745557975769042969e+01 5.136824607849121094e+00 -6.138951301574707031e+00 5.136824607849121094e+00 2.474838447570800781e+01
4.600234985351562500e+00 2.220877408981323242e+00 -5.640019893646240234e+00 2.220877408981323242e+00 1.819842147827148438e+01 5.057442188262939453e+00 -5.640019893646240234e+00 5.057442188262939453e+00 2.549144744873046875e+01
3.531985521316528320e+00 9.221282601356506348e-01 -4.768227100372314453e+00 9.221282601356506348e-01 1.907711410522460938e+01 4.695607662200927734e+00 -4.768227100372314453e+00 4.695607662200927734e+00 2.675284767150878906e+01
4.473002552986145020e-01 -7.011275887489318848e-01 -2.974462032318115234e+00 -7.011275887489318848e-01 1.767293167114257812e+01 2.242623329162597656e+00 -2.974462032318115234e+00 2.242623329162597656e+00 2.808124923706054688e+01
1.255043148994445801e-01 -6.558461785316467285e-01 -2.827547311782836914e+00 -6.558461785316467285e-01 1.732832527160644531e+01 1.916693687438964844e+00 -2.827547311782836914e+00 1.916693687438964844e+00 2.806139755249023438e+01
-9.026426076889038086e-01 -3.543125689029693604e-01 -2.371939420700073242e+00 -3.543125689029693604e-01 1.619243049621582031e+01 8.510913848876953125e-01 -2.371939420700073242e+00 8.510913848876953125e-01 2.793932914733886719e+01
-2.339095115661621094e+00 3.446587920188903809e-01 -1.715540885925292969e+00 3.446587920188903809e-01 1.447159862518310547e+01 -7.738112807273864746e-01 -1.715540885925292969e+00 -7.738112807273864746e-01 2.774960327148437500e+01
-4.596262931823730469e+00 1.670707225799560547e+00 -5.787360668182373047e-01 1.670707225799560547e+00 1.193457221984863281e+01 -3.409949302673339844e+00 -5.787360668182373047e-01 -3.409949302673339844e+00 2.759762954711914062e+01
-4.966892719268798828e+00 1.878197431564331055e+00 -3.752404749393463135e-01 1.878197431564331055e+00 1.154380607604980469e+01 -3.843747377395629883e+00 -3.752404749393463135e-01 -3.843747377395629883e+00 2.754736328125000000e+01
-5.332141876220703125e+00 2.075342178344726562e+00 -1.691814363002777100e-01 2.075342178344726562e+00 1.116743659973144531e+01 -4.265451908111572266e+00 -1.691814363002777100e-01 -4.265451908111572266e+00 2.747233390808105469e+01
-6.375906467437744141e+00 2.590800523757934570e+00 4.669964015483856201e-01 2.590800523757934570e+00 1.012377738952636719e+01 -5.427166461944580078e+00 4.669964015483856201e-01 -5.427166461944580078e+00 2.703642845153808594e+01
-8.338086128234863281e+00 3.112148284912109375e+00 2.057857275009155273e+00 3.112148284912109375e+00 7.967834949493408203e+00 -7.087241649627685547e+00 2.057857275009155273e+00 -7.087241649627685547e+00 2.351540946960449219e+01
-8.567584991455078125e+00 3.100291967391967773e+00 2.290163040161132812e+00 3.100291967391967773e+00 7.668182849884033203e+00 -7.159992218017578125e+00 2.290163040161132812e+00 -7.159992218017578125e+00 2.263749122619628906e+01
-8.784073829650878906e+00 3.069822549819946289e+00 2.521927833557128906e+00 3.069822549819946289e+00 7.365615367889404297e+00 -7.182521343231201172e+00 2.521927833557128906e+00 -7.182521343231201172e+00 2.165416526794433594e+01
-9.172651290893554688e+00 2.957405805587768555e+00 2.992610692977905273e+00 2.957405805587768555e+00 6.735402584075927734e+00 -7.085580825805664062e+00 2.992610692977905273e+00 -7.085580825805664062e+00 1.938182640075683594e+01
-9.488077163696289062e+00 2.780837774276733398e+00 3.471675634384155273e+00 2.780837774276733398e+00 6.042257785797119141e+00 -6.811320304870605469e+00 3.471675634384155273e+00 -6.811320304870605469e+00 1.675169563293457031e+01
-9.898999214172363281e+00 2.316183328628540039e+00 4.399990558624267578e+00 2.316183328628540039e+00 4.490620613098144531e+00 -5.789515972137451172e+00 4.399990558624267578e+00 -5.789515972137451172e+00 1.069546699523925781e+01
-1.003254222869873047e+01 2.073397874832153320e+00 4.827638626098632812e+00 2.073397874832153320e+00 3.677631139755249023e+00 -5.087598800659179688e+00 4.827638626098632812e+00 -5.087598800659179688e+00 7.439731597900390625e+00
-1.014611530303955078e+01 1.264079213142395020e+00 5.861541748046875000e+00 1.264079213142395020e+00 1.361828088760375977e+00 -2.707160234451293945e+00 5.861541748046875000e+00 -2.707160234451293945e+00 -2.118571043014526367e+00
-9.981586456298828125e+00 7.024378329515457153e-02 6.335359573364257812e+00 7.024378329515457153e-02 9.675817191600799561e-02 -3.933162391185760498e-01 6.335359573364257812e+00 -3.933162391185760498e-01 -1.019003486633300781e+01
-9.781398773193359375e+00 -3.509809672832489014e-01 6.337581634521484375e+00 -3.509809672832489014e-01 -3.889013826847076416e-02 3.007664978504180908e-01 6.337581634521484375e+00 3.007664978504180908e-01 -1.234309005737304688e+01
-8.929027557373046875e+00 -1.230751276016235352e+00 5.979149818420410156e+00 -1.230751276016235352e+00 3.685515224933624268e-01 1.741799473762512207e+00 5.979149818420410156e+00 1.741799473762512207e+00 -1.641080284118652344e+01
-6.291265964508056641e+00 -1.569186329841613770e+00 4.003126144409179688e+00 -1.569186329841613770e+00 4.619065761566162109e+00 3.594869136810302734e+00 4.003126144409179688e+00 3.594869136810302734e+00 -1.959155654907226562e+01
-6.063877582550048828e+00 -1.499952077865600586e+00 3.810570001602172852e+00 -1.499952077865600586e+00 5.172533988952636719e+00 3.756187200546264648e+00 3.810570001602172852e+00 3.756187200546264648e+00 -1.956196212768554688e+01
-5.626204013824462891e+00 -1.300498962402343750e+00 3.443988800048828125e+00 -1.300498962402343750e+00 6.341507434844970703e+00 4.095817089080810547e+00 3.443988800048828125e+00 4.095817089080810547e+00 -1.936219215393066406e+01
-5.416010379791259766e+00 -1.159220576286315918e+00 3.269291639328002930e+00 -1.159220576286315918e+00 6.957499027252197266e+00 4.270170211791992188e+00 3.269291639328002930e+00 4.270170211791992188e+00 -1.918535232543945312e+01
-4.812697410583496094e+00 -5.754402875900268555e-01 2.799130201339721680e+00 -5.754402875900268555e-01 8.903082847595214844e+00 4.794890880584716797e+00 2.799130201339721680e+00 4.794890880584716797e+00 -1.837018775939941406e+01
-4.616604328155517578e+00 -3.354706168174743652e-01 2.664637327194213867e+00 -3.354706168174743652e-01 9.576959609985351562e+00 4.971765518188476562e+00 2.664637327194213867e+00 4.971765518188476562e+00 -1.800881385803222656e+01
-3.531325340270996094e+00 1.005947947502136230e+00 2.208118915557861328e+00 1.005947947502136230e+00 1.307502079010009766e+01 5.959073066711425781e+00 2.208118915557861328e+00 5.959073066711425781e+00 -1.557475471496582031e+01
-2.071885824203491211e+00 3.298268318176269531e+00 2.297360897064208984e+00 3.298268318176269531e+00 1.760095214843750000e+01 6.905723094940185547e+00 2.297360897064208984e+00 6.905723094940185547e+00 -9.894112586975097656e+00
-1.902451872825622559e+00 3.540324926376342773e+00 2.250053405761718750e+00 3.540324926376342773e+00 1.819496536254882812e+01 7.147045612335205078e+00 2.250053405761718750e+00 7.147045612335205078e+00 -8.809806823730468750e+00
-1.727577567100524902e+00 3.613729000091552734e+00 2.148073434829711914e+00 3.613729000091552734e+00 1.882853507995605469e+01 7.567170619964599609e+00 2.148073434829711914e+00 7.567170619964599609e+00 -7.778276920318603516e+00
-1.507653951644897461e+00 3.555349588394165039e+00 1.736668109893798828e+00 3.555349588394165039e+00 2.094187545776367188e+01 9.170834541320800781e+00 1.736668109893798828e+00 9.170834541320800781e+00 -4.647972583770751953e+00
-1.002176880836486816e+00 2.917829751968383789e+00 1.613940358161926270e+00 2.917829751968383789e+00 2.473221778869628906e+01 1.331684303283691406e+01 1.613940358161926270e+00 1.331684303283691406e+01 4.962280750274658203e+00
-1.093770861625671387e+00 2.708055973052978516e+00 1.561590433120727539e+00 2.708055973052978516e+00 2.472030830383300781e+01 1.363383007049560547e+01 1.561590433120727539e+00 1.363383007049560547e+01 5.990287303924560547e+00
-1.743314862251281738e+00 1.260348916053771973e+00 1.550718069076538086e+00 1.260348916053771973e+00 2.460429191589355469e+01 1.541061782836914062e+01 1.550718069076538086e+00 1.541061782836914062e+01 9.546170234680175781e+00
-2.239013671875000000e+00 6.065853238105773926e-01 1.509633302688598633e+00 6.065853238105773926e-01 2.382775497436523438e+01 1.555727958679199219e+01 1.509633302688598633e+00 1.555727958679199219e+01 1.066984844207763672e+01
-4.856176376342773438e+00 -3.363301038742065430e+00 7.650459408760070801e-01 -3.363301038742065430e+00 1.837303733825683594e+01 1.478560447692871094e+01 7.650459408760070801e-01 1.478560447692871094e+01 1.157718467712402344e+01
-5.330216407775878906e+00 -5.375034332275390625e+00 -4.454192817211151123e-01 -5.375034332275390625e+00 1.511971282958984375e+01 1.302602958679199219e+01 -4.454192817211151123e-01 1.302602958679199219e+01 1.057252597808837891e+01
-5.402939319610595703e+00 -5.966350555419921875e+00 -9.036494493484497070e-01 -5.966350555419921875e+00 1.434770965576171875e+01 1.254584693908691406e+01 -9.036494493484497070e-01 1.254584693908691406e+01 9.997020721435546875e+00
-5.320585250854492188e+00 -6.715813159942626953e+00 -1.849955797195434570e+00 -6.715813159942626953e+00 1.227400779724121094e+01 1.115553283691406250e+01 -1.849955797195434570e+00 1.115553283691406250e+01 9.276177406311035156e+00
-5.313458442687988281e+00 -6.844420433044433594e+00 -2.046883583068847656e+00 -6.844420433044433594e+00 1.201292800903320312e+01 1.098021888732910156e+01 -2.046883583068847656e+00 1.098021888732910156e+01 8.897043228149414062e+00
-5.364534854888916016e+00 -6.993990421295166016e+00 -2.196348667144775391e+00 -6.993990421295166016e+00 1.160186767578125000e+01 1.070528316497802734e+01 -2.196348667144775391e+00 1.070528316497802734e+01 8.640089988708496094e+00
-6.894237518310546875e+00 -2.123374223709106445e+00 -1.726190924644470215e+00 -2.123374223709106445e+00 7.257052421569824219e+00 7.254915237426757812e+00 -1.726190924644470215e+00 7.254915237426757812e+00 2.516890525817871094e+00
-7.051799774169921875e+00 -1.661139845848083496e+00 -1.549934267997741699e+00 -1.661139845848083496e+00 7.315567493438720703e+00 7.200081825256347656e+00 -1.549934267997741699e+00 7.200081825256347656e+00 2.147505283355712891e+00