9.292782783508300781e+00 -1.650318741798400879e+00 -3.242052793502807617e+00 -1.650318741798400879e+00 -1.944822883605957031e+01 -4.218064785003662109e+00 -3.242052793502807617e+00 -4.218064785003662109e+00 -8.857863545417785645e-01
1.109801959991455078e+01 -1.937295198440551758e+00 -2.976798295974731445e+00 -1.937295198440551758e+00 -1.888534355163574219e+01 -5.735543251037597656e+00 -2.976798295974731445e+00 -5.735543251037597656e+00 1.922160148620605469e+00
1.802064895629882812e+01 -2.818633556365966797e+00 -2.002965927124023438e+00 -2.818633556365966797e+00 -1.548219680786132812e+01 -1.059409332275390625e+01 -2.002965927124023438e+00 -1.059409332275390625e+01 1.200576686859130859e+01
2.697142601013183594e+01 -3.693330287933349609e+00 -9.110788106918334961e-01 -3.693330287933349609e+00 -9.847313880920410156e+00 -1.576030731201171875e+01 -9.110788106918334961e-01 -1.576030731201171875e+01 2.392424011230468750e+01
4.043278884887695312e+01 -4.723601818084716797e+00 4.252738952636718750e-01 -4.723601818084716797e+00 3.596112877130508423e-02 -2.248517227172851562e+01 4.252738952636718750e-01 -2.248517227172851562e+01 4.111497879028320312e+01
5.947457122802734375e+01 -5.639305114746093750e+00 1.464992761611938477e+00 -5.639305114746093750e+00 1.603919982910156250e+01 -2.998502540588378906e+01 1.464992761611938477e+00 -2.998502540588378906e+01 6.445451354980468750e+01
7.213804626464843750e+01 -5.790413379669189453e+00 5.353458523750305176e-01 -5.790413379669189453e+00 2.894408607482910156e+01 -3.133370971679687500e+01 5.353458523750305176e-01 -3.133370971679687500e+01 7.953466796875000000e+01
7.232673645019531250e+01 -5.352591514587402344e+00 -1.259413361549377441e+00 -5.352591514587402344e+00 3.168202400207519531e+01 -2.713904762268066406e+01 -1.259413361549377441e+00 -2.713904762268066406e+01 8.046300506591796875e+01
7.153306579589843750e+01 -5.237431526184082031e+00 -1.703696489334106445e+00 -5.237431526184082031e+00 3.161955451965332031e+01 -2.592066001892089844e+01 -1.703696489334106445e+00 -2.592066001892089844e+01 7.975381469726562500e+01
6.767768096923828125e+01 -4.802291393280029297e+00 -3.068994522094726562e+00 -4.802291393280029297e+00 3.031470108032226562e+01 -2.166957092285156250e+01 -3.068994522094726562e+00 -2.166957092285156250e+01 7.644575500488281250e+01
6.019777679443359375e+01 -4.081286430358886719e+00 -4.995259284973144531e+00 -4.081286430358886719e+00 2.684004211425781250e+01 -1.539613819122314453e+01 -4.995259284973144531e+00 -1.539613819122314453e+01 7.002687835693359375e+01
5.579515075683593750e+01 -3.693522691726684570e+00 -5.933530807495117188e+00 -3.693522691726684570e+00 2.459200096130371094e+01 -1.221148204803466797e+01 -5.933530807495117188e+00 -1.221148204803466797e+01 6.634954071044921875e+01
2.676098442077636719e+01 2.968094944953918457e-01 -1.152521133422851562e+01 2.968094944953918457e-01 8.583994865417480469e+00 5.976508140563964844e+00 -1.152521133422851562e+01 5.976508140563964844e+00 4.257222747802734375e+01
2.049714660644531250e+01 1.985031843185424805e+00 -1.289007854461669922e+01 1.985031843185424805e+00 4.654729843139648438e+00 1.032444381713867188e+01 -1.289007854461669922e+01 1.032444381713867188e+01 3.710092926025390625e+01
1.803031349182128906e+01 3.051028490066528320e+00 -1.357832241058349609e+01 3.051028490066528320e+00 3.103649854660034180e+00 1.245727062225341797e+01 -1.357832241058349609e+01 1.245727062225341797e+01 3.485935592651367188e+01
1.736871147155761719e+01 3.428475618362426758e+00 -1.379938793182373047e+01 3.428475618362426758e+00 2.638962030410766602e+00 1.311963653564453125e+01 -1.379938793182373047e+01 1.311963653564453125e+01 3.424781799316406250e+01
1.682932472229003906e+01 3.784080028533935547e+00 -1.401007366180419922e+01 3.784080028533935547e+00 2.213026285171508789e+00 1.374362277984619141e+01 -1.401007366180419922e+01 1.374362277984619141e+01 3.370697021484375000e+01
1.602661514282226562e+01 4.484904766082763672e+00 -1.440081310272216797e+01 4.484904766082763672e+00 1.539828658103942871e+00 1.487177085876464844e+01 -1.440081310272216797e+01 1.487177085876464844e+01 3.284770202636718750e+01
1.574117660522460938e+01 4.861634731292724609e+00 -1.456872272491455078e+01 4.861634731292724609e+00 1.303699493408203125e+00 1.539383316040039062e+01 -1.456872272491455078e+01 1.539383316040039062e+01 3.256499862670898438e+01
1.552630329132080078e+01 5.244314670562744141e+00 -1.474472332000732422e+01 5.244314670562744141e+00 1.068985104560852051e+00 1.588429737091064453e+01 -1.474472332000732422e+01 1.588429737091064453e+01 3.231138992309570312e+01
1.539674091339111328e+01 5.618699550628662109e+00 -1.491646766662597656e+01 5.618699550628662109e+00 8.753093481063842773e-01 1.636031532287597656e+01 -1.491646766662597656e+01 1.636031532287597656e+01 3.211985397338867188e+01
1.538459587097167969e+01 6.329289913177490234e+00 -1.521748638153076172e+01 6.329289913177490234e+00 6.142436265945434570e-01 1.725548744201660156e+01 -1.521748638153076172e+01 1.725548744201660156e+01 3.191348838806152344e+01
1.580119991302490234e+01 7.413355827331542969e+00 -1.565241718292236328e+01 7.413355827331542969e+00 4.209294319152832031e-01 1.838383865356445312e+01 -1.565241718292236328e+01 1.838383865356445312e+01 3.194199562072753906e+01
1.683140182495117188e+01 8.428443908691406250e+00 -1.607471847534179688e+01 8.428443908691406250e+00 5.768427848815917969e-01 1.930209922790527344e+01 -1.607471847534179688e+01 1.930209922790527344e+01 3.224156951904296875e+01
2.873060989379882812e+01 1.127250099182128906e+01 -1.984282875061035156e+01 1.127250099182128906e+01 6.445843696594238281e+00 2.029747009277343750e+01 -1.984282875061035156e+01 2.029747009277343750e+01 3.451711273193359375e+01
2.972214698791503906e+01 1.124971771240234375e+01 -2.020532417297363281e+01 1.124971771240234375e+01 7.229744911193847656e+00 2.011374473571777344e+01 -2.020532417297363281e+01 2.011374473571777344e+01 3.463403320312500000e+01
3.068196868896484375e+01 1.119529724121093750e+01 -2.058893013000488281e+01 1.119529724121093750e+01 8.042353630065917969e+00 1.991029548645019531e+01 -2.058893013000488281e+01 1.991029548645019531e+01 3.470195770263671875e+01
3.258570480346679688e+01 1.092483520507812500e+01 -2.136989402770996094e+01 1.092483520507812500e+01 9.748617172241210938e+00 1.943474006652832031e+01 -2.136989402770996094e+01 1.943474006652832031e+01 3.481478500366210938e+01
3.640470886230468750e+01 9.549874305725097656e+00 -2.322077560424804688e+01 9.549874305725097656e+00 1.467584514617919922e+01 1.800070953369140625e+01 -2.322077560424804688e+01 1.800070953369140625e+01 3.488863754272460938e+01
3.696131896972656250e+01 9.153118133544921875e+00 -2.359078788757324219e+01 9.153118133544921875e+00 1.575240135192871094e+01 1.770339775085449219e+01 -2.359078788757324219e+01 1.770339775085449219e+01 3.484527969360351562e+01
3.814798736572265625e+01 7.712382316589355469e+00 -2.455439376831054688e+01 7.712382316589355469e+00 1.917248725891113281e+01 1.681946754455566406e+01 -2.455439376831054688e+01 1.681946754455566406e+01 3.494097137451171875e+01
3.838660430908203125e+01 7.179468631744384766e+00 -2.480066299438476562e+01 7.179468631744384766e+00 2.033899688720703125e+01 1.655708312988281250e+01 -2.480066299438476562e+01 1.655708312988281250e+01 3.503281784057617188e+01
3.848759078979492188e+01 5.377113342285156250e+00 -2.543812561035156250e+01 5.377113342285156250e+00 2.399680137634277344e+01 1.579004859924316406e+01 -2.543812561035156250e+01 1.579004859924316406e+01 3.538972091674804688e+01
3.831314849853515625e+01 4.720766067504882812e+00 -2.559867477416992188e+01 4.720766067504882812e+00 2.522121238708496094e+01 1.554013347625732422e+01 -2.559867477416992188e+01 1.554013347625732422e+01 3.560874557495117188e+01
3.810664749145507812e+01 4.051805019378662109e+00 -2.572230148315429688e+01 4.051805019378662109e+00 2.647641754150390625e+01 1.529054069519042969e+01 -2.572230148315429688e+01 1.529054069519042969e+01 3.590472030639648438e+01
3.778152465820312500e+01 3.373293638229370117e+00 -2.580106544494628906e+01 3.373293638229370117e+00 2.776350212097167969e+01 1.505319118499755859e+01 -2.580106544494628906e+01 1.505319118499755859e+01 3.622846984863281250e+01
3.735346603393554688e+01 2.684432744979858398e+00 -2.584654235839843750e+01 2.684432744979858398e+00 2.904648399353027344e+01 1.479878044128417969e+01 -2.584654235839843750e+01 1.479878044128417969e+01 3.663220596313476562e+01
3.688666152954101562e+01 1.999732017517089844e+00 -2.583988952636718750e+01 1.999732017517089844e+00 3.038042259216308594e+01 1.455996704101562500e+01 -2.583988952636718750e+01 1.455996704101562500e+01 3.711985397338867188e+01
3.634505081176757812e+01 1.315941572189331055e+00 -2.578860473632812500e+01 1.315941572189331055e+00 3.171162605285644531e+01 1.428635501861572266e+01 -2.578860473632812500e+01 1.428635501861572266e+01 3.766440582275390625e+01
3.507493209838867188e+01 -1.475762575864791870e-02 -2.558264923095703125e+01 -1.475762575864791870e-02 3.439557266235351562e+01 1.374572277069091797e+01 -2.558264923095703125e+01 1.374572277069091797e+01 3.899963760375976562e+01
3.364367294311523438e+01 -1.319731950759887695e+00 -2.517022514343261719e+01 -1.319731950759887695e+00 3.718448257446289062e+01 1.310446834564208984e+01 -2.517022514343261719e+01 1.310446834564208984e+01 4.069964218139648438e+01
3.206037139892578125e+01 -2.538132905960083008e+00 -2.457981300354003906e+01 -2.538132905960083008e+00 4.004820632934570312e+01 1.236876964569091797e+01 -2.457981300354003906e+01 1.236876964569091797e+01 4.266194915771484375e+01
3.123443984985351562e+01 -3.121927499771118164e+00 -2.424059677124023438e+01 -3.121927499771118164e+00 4.150991439819335938e+01 1.196504211425781250e+01 -2.424059677124023438e+01 1.196504211425781250e+01 4.379426956176757812e+01
2.889381027221679688e+01 -4.698767662048339844e+00 -2.294743728637695312e+01 -4.698767662048339844e+00 4.608496856689453125e+01 1.057524299621582031e+01 -2.294743728637695312e+01 1.057524299621582031e+01 4.759564971923828125e+01
2.757811737060546875e+01 -5.601191043853759766e+00 -2.195563507080078125e+01 -5.601191043853759766e+00 4.922993087768554688e+01 9.474680900573730469e+00 -2.195563507080078125e+01 9.474680900573730469e+00 5.052210617065429688e+01
2.699814414978027344e+01 -6.015413284301757812e+00 -2.138936042785644531e+01 -6.015413284301757812e+00 5.083276367187500000e+01 8.892003059387207031e+00 -2.138936042785644531e+01 8.892003059387207031e+00 5.203252792358398438e+01
2.602112579345703125e+01 -6.810022830963134766e+00 -2.018545913696289062e+01 -6.810022830963134766e+00 5.407787322998046875e+01 7.626034259796142578e+00 -2.018545913696289062e+01 7.626034259796142578e+00 5.524804687500000000e+01
2.537087821960449219e+01 -8.547113418579101562e+00 -1.597461032867431641e+01 -8.547113418579101562e+00 6.380276489257812500e+01 3.615036010742187500e+00 -1.597461032867431641e+01 3.615036010742187500e+00 6.566326141357421875e+01
2.607572364807128906e+01 -9.034039497375488281e+00 -1.441890525817871094e+01 -9.034039497375488281e+00 6.700795745849609375e+01 2.198284387588500977e+00 -1.441890525817871094e+01 2.198284387588500977e+00 6.920957946777343750e+01
2.723983192443847656e+01 -9.457611083984375000e+00 -1.279249191284179688e+01 -9.457611083984375000e+00 6.999198913574218750e+01 8.162024617195129395e-01 -1.279249191284179688e+01 8.162024617195129395e-01 7.274284362792968750e+01
2.975244140625000000e+01 -1.014546012878417969e+01 -1.031020736694335938e+01 -1.014546012878417969e+01 7.411051177978515625e+01 -1.297670602798461914e+00 -1.031020736694335938e+01 -1.297670602798461914e+00 7.790209197998046875e+01
3.545700836181640625e+01 -1.139612483978271484e+01 -6.288415431976318359e+00 -1.139612483978271484e+01 7.931591033935546875e+01 -4.731807708740234375e+00 -6.288415431976318359e+00 -4.731807708740234375e+00 8.563764953613281250e+01
3.806103134155273438e+01 -1.192130374908447266e+01 -4.775153160095214844e+00 -1.192130374908447266e+01 8.072171783447265625e+01 -6.033032894134521484e+00 -4.775153160095214844e+00 -6.033032894134521484e+00 8.840061187744140625e+01
4.591063308715820312e+01 -1.358493518829345703e+01 1.721688061952590942e-01 -1.358493518829345703e+01 8.141275024414062500e+01 -1.009897613525390625e+01 1.721688061952590942e-01 -1.009897613525390625e+01 9.501685333251953125e+01
4.662911605834960938e+01 -1.376283931732177734e+01 8.642820119857788086e-01 -1.376283931732177734e+01 8.094746398925781250e+01 -1.056648731231689453e+01 8.642820119857788086e-01 -1.056648731231689453e+01 9.559308624267578125e+01
4.726261901855468750e+01 -1.395532512664794922e+01 1.562403202056884766e+00 -1.395532512664794922e+01 8.035552978515625000e+01 -1.101038455963134766e+01 1.562403202056884766e+00 -1.101038455963134766e+01 9.609068298339843750e+01
4.802211761474609375e+01 -1.422577953338623047e+01 2.956358432769775391e+00 -1.422577953338623047e+01 7.870117950439453125e+01 -1.172255229949951172e+01 2.956358432769775391e+00 -1.172255229949951172e+01 9.670322418212890625e+01
4.817773818969726562e+01 -1.431834030151367188e+01 3.658675909042358398e+00 -1.431834030151367188e+01 7.772465515136718750e+01 -1.200005245208740234e+01 3.658675909042358398e+00 -1.200005245208740234e+01 9.688254547119140625e+01
4.826949691772460938e+01 -1.440671730041503906e+01 4.355771064758300781e+00 -1.440671730041503906e+01 7.669979095458984375e+01 -1.222781276702880859e+01 4.355771064758300781e+00 -1.222781276702880859e+01 9.696305084228515625e+01
4.817451095581054688e+01 -1.446922588348388672e+01 5.050761222839355469e+00 -1.446922588348388672e+01 7.558035278320312500e+01 -1.237517547607421875e+01 5.050761222839355469e+00 -1.237517547607421875e+01 9.692366790771484375e+01
4.731256103515625000e+01 -1.456383609771728516e+01 7.044564723968505859e+00 -1.456383609771728516e+01 7.195658874511718750e+01 -1.253789329528808594e+01 7.044564723968505859e+00 -1.253789329528808594e+01 9.658455657958984375e+01
4.426295852661132812e+01 -1.395610523223876953e+01 1.088960647583007812e+01 -1.395610523223876953e+01 6.393011856079101562e+01 -1.090143966674804688e+01 1.088960647583007812e+01 -1.090143966674804688e+01 9.537151336669921875e+01
4.407755279541015625e+01 -1.355303001403808594e+01 1.131241607666015625e+01 -1.355303001403808594e+01 6.297535705566406250e+01 -1.017780399322509766e+01 1.131241607666015625e+01 -1.017780399322509766e+01 9.527742004394531250e+01
4.443795776367187500e+01 -1.272507572174072266e+01 1.145507335662841797e+01 -1.272507572174072266e+01 6.241062164306640625e+01 -9.070494651794433594e+00 1.145507335662841797e+01 -9.070494651794433594e+00 9.520066070556640625e+01
4.470183563232421875e+01 -1.239315605163574219e+01 1.135652256011962891e+01 -1.239315605163574219e+01 6.247661972045898438e+01 -8.675292015075683594e+00 1.135652256011962891e+01 -8.675292015075683594e+00 9.519930267333984375e+01
4.558153152465820312e+01 -1.166333007812500000e+01 1.098856449127197266e+01 -1.166333007812500000e+01 6.292681503295898438e+01 -7.920980930328369141e+00 1.098856449127197266e+01 -7.920980930328369141e+00 9.522640228271484375e+01
4.958034515380859375e+01 -9.025643348693847656e+00 8.740819931030273438e+00 -9.025643348693847656e+00 6.597906494140625000e+01 -6.073571681976318359e+00 8.740819931030273438e+00 -6.073571681976318359e+00 9.436138153076171875e+01
5.036574172973632812e+01 -8.544069290161132812e+00 8.257560729980468750e+00 -8.544069290161132812e+00 6.656833648681640625e+01 -5.844448089599609375e+00 8.257560729980468750e+00 -5.844448089599609375e+00 9.404030609130859375e+01
5.121181869506835938e+01 -8.076833724975585938e+00 7.785429000854492188e+00 -8.076833724975585938e+00 6.715609741210937500e+01 -5.674960136413574219e+00 7.785429000854492188e+00 -5.674960136413574219e+00 9.369187164306640625e+01
5.384360885620117188e+01 -6.764243125915527344e+00 6.376399040222167969e+00 -6.764243125915527344e+00 6.861449432373046875e+01 -5.287748813629150391e+00 6.376399040222167969e+00 -5.287748813629150391e+00 9.232488250732421875e+01
5.653063201904296875e+01 -5.555102825164794922e+00 5.123163223266601562e+00 -5.555102825164794922e+00 6.936776733398437500e+01 -5.171919345855712891e+00 5.123163223266601562e+00 -5.171919345855712891e+00 9.061085510253906250e+01
6.573073577880859375e+01 -3.004823923110961914e+00 3.796024560928344727e+00 -3.004823923110961914e+00 6.325524139404296875e+01 -6.080049991607666016e+00 3.796024560928344727e+00 -6.080049991607666016e+00 8.484194183349609375e+01
6.626287841796875000e+01 -3.009397506713867188e+00 3.917333126068115234e+00 -3.009397506713867188e+00 6.217100524902343750e+01 -6.167890071868896484e+00 3.917333126068115234e+00 -6.167890071868896484e+00 8.462907409667968750e+01
6.837213897705078125e+01 -3.710842609405517578e+00 5.108230590820312500e+00 -3.710842609405517578e+00 5.520038604736328125e+01 -6.501710891723632812e+00 5.108230590820312500e+00 -6.501710891723632812e+00 8.440043640136718750e+01
6.758318328857421875e+01 -5.589014530181884766e+00 7.682767868041992188e+00 -5.589014530181884766e+00 4.542968368530273438e+01 -5.107278347015380859e+00 7.682767868041992188e+00 -5.107278347015380859e+00 8.694404602050781250e+01
6.337965393066406250e+01 -8.151914596557617188e+00 1.046976947784423828e+01 -8.151914596557617188e+00 3.653214645385742188e+01 -2.330689907073974609e+00 1.046976947784423828e+01 -2.330689907073974609e+00 9.128615570068359375e+01
5.295615005493164062e+01 -1.297411918640136719e+01 1.199319744110107422e+01 -1.297411918640136719e+01 2.427356338500976562e+01 2.822843074798583984e+00 1.199319744110107422e+01 2.822843074798583984e+00 9.343277740478515625e+01
5.090580368041992188e+01 -1.390484905242919922e+01 1.173589420318603516e+01 -1.390484905242919922e+01 2.253137207031250000e+01 3.808986425399780273e+00 1.173589420318603516e+01 3.808986425399780273e+00 9.291612243652343750e+01
4.904603576660156250e+01 -1.470394325256347656e+01 1.142315101623535156e+01 -1.470394325256347656e+01 2.117053794860839844e+01 4.811147212982177734e+00 1.142315101623535156e+01 4.811147212982177734e+00 9.221583557128906250e+01
4.655755996704101562e+01 -1.576523494720458984e+01 1.100649547576904297e+01 -1.576523494720458984e+01 1.981755828857421875e+01 6.144265174865722656e+00 1.100649547576904297e+01 6.144265174865722656e+00 9.089092254638671875e+01
4.581500625610351562e+01 -1.604961013793945312e+01 1.088546085357666016e+01 -1.604961013793945312e+01 1.950676918029785156e+01 6.575019836425781250e+00 1.088546085357666016e+01 6.575019836425781250e+00 9.034300231933593750e+01
4.517518997192382812e+01 -1.633723258972167969e+01 1.079576587677001953e+01 -1.633723258972167969e+01 1.934536552429199219e+01 6.959109306335449219e+00 1.079576587677001953e+01 6.959109306335449219e+00 8.976930999755859375e+01
4.365762329101562500e+01 -1.720919418334960938e+01 1.089097595214843750e+01 -1.720919418334960938e+01 1.948555374145507812e+01 8.180089950561523438e+00 1.089097595214843750e+01 8.180089950561523438e+00 8.717232513427734375e+01
4.354040908813476562e+01 -1.733735847473144531e+01 1.105561351776123047e+01 -1.733735847473144531e+01 1.974886131286621094e+01 8.372474670410156250e+00 1.105561351776123047e+01 8.372474670410156250e+00 8.644641876220703125e+01
4.362244796752929688e+01 -1.749752807617187500e+01 1.155407047271728516e+01 -1.749752807617187500e+01 2.062679862976074219e+01 8.629125595092773438e+00 1.155407047271728516e+01 8.629125595092773438e+00 8.493033599853515625e+01
4.423398971557617188e+01 -1.752995872497558594e+01 1.225734901428222656e+01 -1.752995872497558594e+01 2.175939750671386719e+01 8.719638824462890625e+00 1.225734901428222656e+01 8.719638824462890625e+00 8.335742187500000000e+01
4.472577285766601562e+01 -1.749131011962890625e+01 1.267870235443115234e+01 -1.749131011962890625e+01 2.245905494689941406e+01 8.709430694580078125e+00 1.267870235443115234e+01 8.709430694580078125e+00 8.258293151855468750e+01
4.529745101928710938e+01 -1.738733482360839844e+01 1.312925910949707031e+01 -1.738733482360839844e+01 2.324037742614746094e+01 8.672301292419433594e+00 1.312925910949707031e+01 8.672301292419433594e+00 8.179565429687500000e+01
4.673428726196289062e+01 -1.714063644409179688e+01 1.409317588806152344e+01 -1.714063644409179688e+01 2.495221519470214844e+01 8.435436248779296875e+00 1.409317588806152344e+01 8.435436248779296875e+00 8.021082305908203125e+01
4.859887695312500000e+01 -1.677992439270019531e+01 1.518134784698486328e+01 -1.677992439270019531e+01 2.678982162475585938e+01 8.015519142150878906e+00 1.518134784698486328e+01 8.015519142150878906e+00 7.877375793457031250e+01
4.967904281616210938e+01 -1.657166099548339844e+01 1.575322532653808594e+01 -1.657166099548339844e+01 2.780896759033203125e+01 7.717580318450927734e+00 1.575322532653808594e+01 7.717580318450927734e+00 7.815803527832031250e+01
5.078976821899414062e+01 -1.635167503356933594e+01 1.632857704162597656e+01 -1.635167503356933594e+01 2.883872985839843750e+01 7.385874748229980469e+00 1.632857704162597656e+01 7.385874748229980469e+00 7.756381988525390625e+01
5.327655029296875000e+01 -1.583228206634521484e+01 1.748301887512207031e+01 -1.583228206634521484e+01 3.095978355407714844e+01 6.593117237091064453e+00 1.748301887512207031e+01 6.593117237091064453e+00 7.653996276855468750e+01
5.749912261962890625e+01 -1.491204261779785156e+01 1.900890731811523438e+01 -1.491204261779785156e+01 3.394108963012695312e+01 5.217555522918701172e+00 1.900890731811523438e+01 5.217555522918701172e+00 7.520071411132812500e+01
6.217913055419921875e+01 -1.371526050567626953e+01 2.012080574035644531e+01 -1.371526050567626953e+01 3.683535766601562500e+01 3.992246389389038086e+00 2.012080574035644531e+01 3.992246389389038086e+00 7.403884887695312500e+01
6.378718948364257812e+01 -1.326803684234619141e+01 2.039818572998046875e+01 -1.326803684234619141e+01 3.782337570190429688e+01 3.587574005126953125e+00 2.039818572998046875e+01 3.587574005126953125e+00 7.373279571533203125e+01
6.530965423583984375e+01 -1.283200263977050781e+01 2.062622070312500000e+01 -1.283200263977050781e+01 3.880527496337890625e+01 3.218364953994750977e+00 2.062622070312500000e+01 3.218364953994750977e+00 7.346550750732421875e+01
6.675086212158203125e+01 -1.234530925750732422e+01 2.084473800659179688e+01 -1.234530925750732422e+01 3.974706649780273438e+01 2.828258752822875977e+00 2.084473800659179688e+01 2.828258752822875977e+00 7.326099395751953125e+01
6.798499298095703125e+01 -1.187089252471923828e+01 2.098330307006835938e+01 -1.187089252471923828e+01 4.049978637695312500e+01 2.455794811248779297e+00 2.098330307006835938e+01 2.455794811248779297e+00 7.299869537353515625e+01
7.018786621093750000e+01 -1.089398670196533203e+01 2.119441795349121094e+01 -1.089398670196533203e+01 4.194351577758789062e+01 1.745949387550354004e+00 2.119441795349121094e+01 1.745949387550354004e+00 7.252639770507812500e+01
7.108627319335937500e+01 -1.041294384002685547e+01 2.118995857238769531e+01 -1.041294384002685547e+01 4.248461914062500000e+01 1.427948474884033203e+00 2.118995857238769531e+01 1.427948474884033203e+00 7.222704315185546875e+01
7.275669097900390625e+01 -9.075987815856933594e+00 2.097657394409179688e+01 -9.075987815856933594e+00 4.344039535522460938e+01 5.627070069313049316e-01 2.097657394409179688e+01 5.627070069313049316e-01 7.113953399658203125e+01
7.291471862792968750e+01 -8.657625198364257812e+00 2.081616401672363281e+01 -8.657625198364257812e+00 4.350563812255859375e+01 3.284951150417327881e-01 2.081616401672363281e+01 3.284951150417327881e-01 7.062666320800781250e+01
7.282317352294921875e+01 -7.898760795593261719e+00 2.048793983459472656e+01 -7.898760795593261719e+00 4.350409698486328125e+01 1.100628823041915894e-02 2.048793983459472656e+01 1.100628823041915894e-02 6.958161926269531250e+01
7.086942291259765625e+01 -7.005584716796875000e+00 1.977187538146972656e+01 -7.005584716796875000e+00 4.261984252929687500e+01 -5.602652430534362793e-01 1.977187538146972656e+01 -5.602652430534362793e-01 6.682627105712890625e+01
6.842143249511718750e+01 -7.004484653472900391e+00 1.913114166259765625e+01 -7.004484653472900391e+00 4.156948852539062500e+01 -9.373364448547363281e-01 1.913114166259765625e+01 -9.373364448547363281e-01 6.465965270996093750e+01
6.739815521240234375e+01 -7.086439609527587891e+00 1.888654518127441406e+01 -7.086439609527587891e+00 4.118407440185546875e+01 -1.122467279434204102e+00 1.888654518127441406e+01 -1.122467279434204102e+00 6.399802398681640625e+01
6.191342926025390625e+01 -8.065163612365722656e+00 1.775194168090820312e+01 -8.065163612365722656e+00 3.985533142089843750e+01 -2.479276895523071289e+00 1.775194168090820312e+01 -2.479276895523071289e+00 6.172018432617187500e+01
5.933483123779296875e+01 -9.008442878723144531e+00 1.709267616271972656e+01 -9.008442878723144531e+00 4.000986862182617188e+01 -3.868501186370849609e+00 1.709267616271972656e+01 -3.868501186370849609e+00 6.126221466064453125e+01
5.766406250000000000e+01 -1.015925788879394531e+01 1.662413597106933594e+01 -1.015925788879394531e+01 4.086893463134765625e+01 -5.406362533569335938e+00 1.662413597106933594e+01 -5.406362533569335938e+00 6.119166183471679688e+01
5.730811309814453125e+01 -1.050394439697265625e+01 1.651985359191894531e+01 -1.050394439697265625e+01 4.139167022705078125e+01 -5.945342540740966797e+00 1.651985359191894531e+01 -5.945342540740966797e+00 6.122185897827148438e+01
5.669593048095703125e+01 -1.215707588195800781e+01 1.633884811401367188e+01 -1.215707588195800781e+01 4.523723602294921875e+01 -8.745168685913085938e+00 1.633884811401367188e+01 -8.745168685913085938e+00 6.146802520751953125e+01
5.760145187377929688e+01 -1.362086963653564453e+01 1.641053390502929688e+01 -1.362086963653564453e+01 4.876623153686523438e+01 -1.060947227478027344e+01 1.641053390502929688e+01 -1.060947227478027344e+01 6.117911911010742188e+01
5.794646835327148438e+01 -1.396685409545898438e+01 1.639026641845703125e+01 -1.396685409545898438e+01 4.973459243774414062e+01 -1.094749450683593750e+01 1.639026641845703125e+01 -1.094749450683593750e+01 6.098169326782226562e+01
5.867959976196289062e+01 -1.459651184082031250e+01 1.630809211730957031e+01 -1.459651184082031250e+01 5.173039245605468750e+01 -1.144136905670166016e+01 1.630809211730957031e+01 -1.144136905670166016e+01 6.041839218139648438e+01
5.903155899047851562e+01 -1.486640739440917969e+01 1.625681114196777344e+01 -1.486640739440917969e+01 5.271535110473632812e+01 -1.160324764251708984e+01 1.625681114196777344e+01 -1.160324764251708984e+01 5.998811340332031250e+01
5.982415771484375000e+01 -1.529463958740234375e+01 1.613153839111328125e+01 -1.529463958740234375e+01 5.454603958129882812e+01 -1.172351837158203125e+01 1.613153839111328125e+01 -1.172351837158203125e+01 5.887094116210937500e+01
6.029024124145507812e+01 -1.546748924255371094e+01 1.604621315002441406e+01 -1.546748924255371094e+01 5.533382797241210938e+01 -1.166979026794433594e+01 1.604621315002441406e+01 -1.166979026794433594e+01 5.822901916503906250e+01
6.424590301513671875e+01 -1.546908283233642578e+01 1.352380657196044922e+01 -1.546908283233642578e+01 5.927167129516601562e+01 -8.069040298461914062e+00 1.352380657196044922e+01 -8.069040298461914062e+00 5.236399078369140625e+01
6.594296264648437500e+01 -1.482948112487792969e+01 1.152539062500000000e+01 -1.482948112487792969e+01 5.965631103515625000e+01 -5.574804782867431641e+00 1.152539062500000000e+01 -5.574804782867431641e+00 5.064666366577148438e+01
6.845629119873046875e+01 -1.322791481018066406e+01 8.544626235961914062e+00 -1.322791481018066406e+01 5.988670730590820312e+01 -1.760823369026184082e+00 8.544626235961914062e+00 -1.760823369026184082e+00 4.951986694335937500e+01
6.917230224609375000e+01 -1.269361591339111328e+01 7.796953678131103516e+00 -1.269361591339111328e+01 5.991553115844726562e+01 -6.916475296020507812e-01 7.796953678131103516e+00 -6.916475296020507812e-01 4.946294403076171875e+01
7.150877380371093750e+01 -1.086550045013427734e+01 5.858355045318603516e+00 -1.086550045013427734e+01 5.964297103881835938e+01 2.575099229812622070e+00 5.858355045318603516e+00 2.575099229812622070e+00 4.980034637451171875e+01
7.385365295410156250e+01 -8.874449729919433594e+00 4.381907463073730469e+00 -8.874449729919433594e+00 5.897960662841796875e+01 5.883744239807128906e+00 4.381907463073730469e+00 5.883744239807128906e+00 5.100984954833984375e+01
7.456503295898437500e+01 -8.192380905151367188e+00 4.024260520935058594e+00 -8.192380905151367188e+00 5.872000503540039062e+01 6.928216457366943359e+00 4.024260520935058594e+00 6.928216457366943359e+00 5.152917861938476562e+01
7.907560729980468750e+01 -3.088129758834838867e+00 4.502725601196289062e+00 -3.088129758834838867e+00 5.679143524169921875e+01 1.352329921722412109e+01 4.502725601196289062e+00 1.352329921722412109e+01 5.599070739746093750e+01
7.952290344238281250e+01 -2.392425775527954102e+00 4.958781242370605469e+00 -2.392425775527954102e+00 5.660536193847656250e+01 1.429263210296630859e+01 4.958781242370605469e+00 1.429263210296630859e+01 5.657761383056640625e+01
8.012314605712890625e+01 -1.140500426292419434e+00 5.970265388488769531e+00 -1.140500426292419434e+00 5.648384094238281250e+01 1.567833518981933594e+01 5.970265388488769531e+00 1.567833518981933594e+01 5.795026397705078125e+01
8.033428192138671875e+01 2.029236853122711182e-01 7.704751014709472656e+00 2.029236853122711182e-01 5.644128799438476562e+01 1.733652496337890625e+01 7.704751014709472656e+00 1.733652496337890625e+01 6.029159164428710938e+01
7.983929443359375000e+01 8.855662941932678223e-01 9.713250160217285156e+00 8.855662941932678223e-01 5.665958786010742188e+01 1.849896812438964844e+01 9.713250160217285156e+00 1.849896812438964844e+01 6.263170623779296875e+01
7.886768341064453125e+01 1.160215258598327637e+00 1.171253013610839844e+01 1.160215258598327637e+00 5.745742416381835938e+01 1.927584075927734375e+01 1.171253013610839844e+01 1.927584075927734375e+01 6.525859832763671875e+01