-1.950849804687500000e+04
-1.950505468750000000e+04
-1.950402734375000000e+04
-1.950130273437500000e+04
-1.949823828125000000e+04
-1.949329882812500000e+04
-1.949270117187500000e+04
-1.949212304687500000e+04
-1.949195117187500000e+04
-1.949141601562500000e+04
-1.949122070312500000e+04
-1.949112109375000000e+04
-1.949048437500000000e+04
-1.948969726562500000e+04
-1.948943750000000000e+04
-1.948917773437500000e+04
-1.948941601562500000e+04
-1.948957421875000000e+04
-1.949027343750000000e+04
-1.949058398437500000e+04
-1.949060546875000000e+04
-1.949058789062500000e+04
-1.949048046875000000e+04
-1.949035742187500000e+04
-1.949028320312500000e+04
-1.949020507812500000e+04
-1.949011914062500000e+04
-1.949003125000000000e+04
-1.948918554687500000e+04
-1.948895507812500000e+04
-1.948899804687500000e+04
-1.948904882812500000e+04
-1.948885937500000000e+04
-1.948750781250000000e+04
-1.948739843750000000e+04
-1.948664648437500000e+04
-1.948643945312500000e+04
-1.948624609375000000e+04
-1.948589257812500000e+04
-1.948566796875000000e+04
-1.948560156250000000e+04
-1.948542187500000000e+04
-1.948515625000000000e+04
-1.948493554687500000e+04
-1.948465039062500000e+04
-1.948459375000000000e+04
-1.948448828125000000e+04
-1.948435546875000000e+04
-1.948425000000000000e+04
-1.948422265625000000e+04
-1.948412500000000000e+04
-1.948410351562500000e+04
-1.948406445312500000e+04
-1.948373242187500000e+04
-1.948346679687500000e+04
-1.948314648437500000e+04
-1.948264843750000000e+04
-1.948252929687500000e+04
-1.948265625000000000e+04
-1.948265039062500000e+04
-1.948217968750000000e+04
-1.948204882812500000e+04
-1.948175585937500000e+04
-1.948125976562500000e+04
-1.948048046875000000e+04
-1.948025195312500000e+04
-1.948003710937500000e+04
-1.948001757812500000e+04
-1.948022656250000000e+04
-1.947982617187500000e+04
-1.947939453125000000e+04
-1.947877734375000000e+04
-1.947865820312500000e+04
-1.947817187500000000e+04
-1.947812890625000000e+04
-1.947815039062500000e+04
-1.947738671875000000e+04
-1.947719140625000000e+04
-1.947645898437500000e+04
-1.947636132812500000e+04
-1.947624609375000000e+04
-1.947387109375000000e+04
-1.947363281250000000e+04
-1.947087695312500000e+04
-1.947022265625000000e+04
-1.946987695312500000e+04
-1.946994921875000000e+04
-1.947001757812500000e+04
-1.946969726562500000e+04
-1.946960742187500000e+04
-1.946928515625000000e+04
-1.946872656250000000e+04
-1.946782031250000000e+04
-1.946769140625000000e+04
-1.946757617187500000e+04
-1.946729492187500000e+04
-1.946705859375000000e+04
-1.946705273437500000e+04
-1.946705078125000000e+04
-1.946703710937500000e+04
-1.946700585937500000e+04
-1.946683984375000000e+04
-1.946668359375000000e+04
-1.946592187500000000e+04
-1.946501953125000000e+04
-1.946477929687500000e+04
-1.946441406250000000e+04
-1.946445312500000000e+04
-1.946448632812500000e+04
-1.946456445312500000e+04
-1.946461132812500000e+04
-1.946476953125000000e+04
-1.946483203125000000e+04
-1.946520117187500000e+04
-1.946576367187500000e+04
-1.946584179687500000e+04
-1.946591601562500000e+04
-1.946612109375000000e+04
-1.946641210937500000e+04
-1.946639257812500000e+04
-1.946613671875000000e+04
-1.946596484375000000e+04
-1.946477148437500000e+04
-1.946427148437500000e+04
-1.946416015625000000e+04
-1.946401953125000000e+04
-1.946399804687500000e+04
-1.946398242187500000e+04
-1.946350390625000000e+04
-1.946343359375000000e+04
-1.946291015625000000e+04
-1.946290625000000000e+04
-1.946293359375000000e+04
-1.946307226562500000e+04
-1.946317968750000000e+04
-1.946374023437500000e+04
-1.946405859375000000e+04
-1.946364062500000000e+04
-1.946343554687500000e+04
-1.946288085937500000e+04
-1.946243945312500000e+04
-1.946239453125000000e+04
-1.946237890625000000e+04
-1.946235742187500000e+04
-1.946213867187500000e+04
-1.946159570312500000e+04
-1.946060351562500000e+04
-1.945978125000000000e+04
-1.945961523437500000e+04
-1.945941796875000000e+04
-1.945900585937500000e+04
-1.945867968750000000e+04
-1.945850781250000000e+04
-1.945866992187500000e+04
-1.945967187500000000e+04
-1.946009375000000000e+04
-1.946051562500000000e+04
-1.946156250000000000e+04
-1.946189843750000000e+04
-1.946207812500000000e+04
-1.946210546875000000e+04
-1.946198242187500000e+04
-1.946094726562500000e+04
-1.945833789062500000e+04
-1.945736914062500000e+04
-1.945618554687500000e+04
-1.945596289062500000e+04
-1.945611718750000000e+04
-1.945653320312500000e+04
-1.945733203125000000e+04
-1.945938476562500000e+04
-1.945947070312500000e+04
-1.945966601562500000e+04
-1.945973632812500000e+04
-1.945964453125000000e+04
-1.945959179687500000e+04
-1.945813476562500000e+04
-1.945791992187500000e+04
-1.945748437500000000e+04
-1.945602343750000000e+04
-1.945628906250000000e+04
-1.945677734375000000e+04
-1.945926562500000000e+04
-1.945952539062500000e+04
-1.945955273437500000e+04
-1.945976757812500000e+04
-1.945983007812500000e+04
-1.945817187500000000e+04
-1.945802539062500000e+04
-1.945700976562500000e+04
-1.945520898437500000e+04
-1.945515429687500000e+04
-1.945518554687500000e+04
-1.945524218750000000e+04
-1.945586914062500000e+04
-1.945601171875000000e+04
-1.945547656250000000e+04
-1.945299804687500000e+04
-1.945287890625000000e+04
-1.945285546875000000e+04
-1.945318164062500000e+04
-1.945338671875000000e+04
-1.945354101562500000e+04
-1.945353710937500000e+04
-1.945350000000000000e+04
-1.945276757812500000e+04
-1.945179687500000000e+04
-1.945308789062500000e+04
-1.945363867187500000e+04
-1.945375976562500000e+04
-1.945503710937500000e+04
-1.945537890625000000e+04
-1.945537500000000000e+04
-1.945537695312500000e+04
-1.945515820312500000e+04
-1.945502343750000000e+04
-1.945376757812500000e+04
-1.945361914062500000e+04
-1.945260937500000000e+04
-1.945217968750000000e+04
-1.945192187500000000e+04
-1.945188281250000000e+04
-1.945184570312500000e+04
-1.945167578125000000e+04
-1.945139843750000000e+04
-1.945116015625000000e+04
-1.945089453125000000e+04
-1.945047851562500000e+04
-1.945053906250000000e+04
-1.945066210937500000e+04
-1.944994335937500000e+04
-1.944966796875000000e+04
-1.945021679687500000e+04
-1.945308593750000000e+04
-1.945333593750000000e+04
-1.945342578125000000e+04
-1.945395507812500000e+04
-1.945400000000000000e+04
-1.945438085937500000e+04
-1.945447460937500000e+04
-1.945447265625000000e+04
-1.945455273437500000e+04
-1.945446484375000000e+04
-1.945424414062500000e+04
-1.945305468750000000e+04
-1.945366992187500000e+04
-1.945374218750000000e+04
-1.945393750000000000e+04
-1.945388085937500000e+04
-1.945381054687500000e+04
-1.945373242187500000e+04
-1.945292382812500000e+04
-1.945265234375000000e+04
-1.945216406250000000e+04
-1.945207421875000000e+04
-1.945191992187500000e+04
-1.945211132812500000e+04
-1.945243164062500000e+04
-1.945253320312500000e+04
-1.945264843750000000e+04
-1.945372070312500000e+04
-1.945395703125000000e+04
-1.945419140625000000e+04
-1.945474023437500000e+04
-1.945539257812500000e+04
-1.945590039062500000e+04
-1.945601367187500000e+04
-1.945698046875000000e+04
-1.945694921875000000e+04
-1.945689453125000000e+04
-1.945683984375000000e+04
-1.945651562500000000e+04
-1.945622851562500000e+04
-1.945553906250000000e+04
-1.945494726562500000e+04
-1.945401562500000000e+04
-1.945380468750000000e+04
-1.945364257812500000e+04
-1.945477929687500000e+04
-1.945625000000000000e+04
-1.945633593750000000e+04
-1.945749804687500000e+04
-1.945758007812500000e+04
-1.945779296875000000e+04
-1.945821484375000000e+04
-1.945827343750000000e+04
-1.945813867187500000e+04
-1.945808398437500000e+04
-1.945736132812500000e+04
-1.945744726562500000e+04
-1.945774804687500000e+04
-1.945778320312500000e+04
-1.945793359375000000e+04
-1.945800195312500000e+04
-1.945798632812500000e+04
-1.945794335937500000e+04
-1.945788476562500000e+04
-1.945700781250000000e+04
-1.945691992187500000e+04
-1.945686718750000000e+04
-1.945675195312500000e+04
-1.945673632812500000e+04
-1.945694726562500000e+04
-1.945697460937500000e+04
-1.945693750000000000e+04
-1.945567382812500000e+04
-1.945545898437500000e+04
-1.945533398437500000e+04
-1.945486718750000000e+04
-1.945459960937500000e+04
-1.945446289062500000e+04
-1.945430664062500000e+04
-1.945461132812500000e+04
-1.945475585937500000e+04
-1.945461914062500000e+04
-1.945456835937500000e+04
-1.945412890625000000e+04
-1.945406640625000000e+04
-1.945400976562500000e+04
-1.945374609375000000e+04
-1.945367773437500000e+04
-1.945365429687500000e+04
-1.945373046875000000e+04
-1.945382226562500000e+04
-1.945429882812500000e+04
-1.945436718750000000e+04
-1.945451953125000000e+04
-1.945461523437500000e+04
-1.945480078125000000e+04
-1.945565625000000000e+04
-1.945565625000000000e+04
-1.945522656250000000e+04
-1.945513085937500000e+04
-1.945563671875000000e+04
-1.945591992187500000e+04
-1.945585351562500000e+04
-1.945555468750000000e+04
-1.945472656250000000e+04
-1.945460156250000000e+04
-1.945402929687500000e+04
-1.945291015625000000e+04
-1.945234179687500000e+04
-1.945233593750000000e+04
-1.945237304687500000e+04
-1.945350976562500000e+04
-1.945375976562500000e+04
-1.945390429687500000e+04
-1.945409375000000000e+04
-1.945481054687500000e+04
-1.945495312500000000e+04
-1.945525781250000000e+04
-1.945679492187500000e+04
-1.945697851562500000e+04
-1.945697851562500000e+04
-1.945568554687500000e+04
-1.945524804687500000e+04
-1.945572460937500000e+04
-1.945582812500000000e+04
-1.945620898437500000e+04
-1.945651757812500000e+04
-1.945713671875000000e+04
-1.945752734375000000e+04
-1.945742382812500000e+04
-1.945536132812500000e+04
-1.945556250000000000e+04
-1.945695117187500000e+04
-1.945703515625000000e+04
-1.945717578125000000e+04
-1.945688671875000000e+04
-1.945638671875000000e+04
-1.945596875000000000e+04
-1.945540234375000000e+04
-1.945623437500000000e+04
-1.945649804687500000e+04
-1.945658203125000000e+04
-1.945682421875000000e+04
-1.945690039062500000e+04
-1.945768554687500000e+04
-1.945880273437500000e+04
-1.945939453125000000e+04
-1.945981054687500000e+04
-1.946013867187500000e+04
-1.946038085937500000e+04
-1.946035546875000000e+04
-1.946018945312500000e+04
-1.946010546875000000e+04
-1.946001562500000000e+04
-1.945992382812500000e+04
-1.945971679687500000e+04
-1.945910156250000000e+04
-1.945934765625000000e+04
-1.945937109375000000e+04
-1.945918945312500000e+04
-1.945902343750000000e+04
-1.945837695312500000e+04
-1.945798828125000000e+04
-1.945747460937500000e+04
-1.945745703125000000e+04
-1.945683593750000000e+04
-1.945669531250000000e+04
-1.945662304687500000e+04
-1.945648632812500000e+04
-1.945641796875000000e+04
-1.945629296875000000e+04
-1.945611328125000000e+04
-1.945602929687500000e+04
-1.945604296875000000e+04
-1.945607226562500000e+04
-1.945616992187500000e+04
-1.945649218750000000e+04
-1.945666015625000000e+04
-1.945719335937500000e+04
-1.945715039062500000e+04
-1.945687304687500000e+04
-1.945683984375000000e+04
-1.945674609375000000e+04
-1.945628710937500000e+04
-1.945559375000000000e+04
-1.945518554687500000e+04
-1.945491406250000000e+04
-1.945398437500000000e+04
-1.945391992187500000e+04
-1.945384960937500000e+04
-1.945317382812500000e+04
-1.945309960937500000e+04
-1.945293359375000000e+04
-1.945302343750000000e+04
-1.945419140625000000e+04
-1.945496679687500000e+04
-1.945471289062500000e+04
-1.945425585937500000e+04
-1.945311523437500000e+04
-1.945280078125000000e+04
-1.945326171875000000e+04
-1.945343359375000000e+04
-1.945368554687500000e+04
-1.945451757812500000e+04
-1.945467578125000000e+04
-1.945467578125000000e+04
-1.945395117187500000e+04
-1.945366015625000000e+04
-1.945324023437500000e+04
-1.945318164062500000e+04
-1.945309570312500000e+04
-1.945318554687500000e+04
-1.945350781250000000e+04
-1.945361718750000000e+04
-1.945456835937500000e+04
-1.945485742187500000e+04
-1.945538476562500000e+04
-1.945571679687500000e+04
-1.945619140625000000e+04
-1.945677343750000000e+04
-1.945685937500000000e+04
-1.945734179687500000e+04
-1.945754492187500000e+04
-1.945774023437500000e+04
-1.945817382812500000e+04
-1.945796093750000000e+04
-1.945754492187500000e+04
-1.945731640625000000e+04
-1.945702343750000000e+04
-1.945680273437500000e+04
-1.945682421875000000e+04
-1.945687109375000000e+04
-1.945688476562500000e+04
-1.945616406250000000e+04
-1.945558203125000000e+04
-1.945548242187500000e+04
-1.945538476562500000e+04
-1.945529687500000000e+04
-1.945522460937500000e+04
-1.945506640625000000e+04
-1.945558203125000000e+04
-1.945622070312500000e+04
-1.945742578125000000e+04
-1.945746484375000000e+04
-1.945749414062500000e+04
-1.945763281250000000e+04
-1.945761914062500000e+04
-1.945744921875000000e+04
-1.945738671875000000e+04
-1.945715820312500000e+04
-1.945658398437500000e+04
-1.945639648437500000e+04
-1.945621875000000000e+04
-1.945613671875000000e+04
-1.945584375000000000e+04
-1.945570703125000000e+04
-1.945553320312500000e+04
-1.945539453125000000e+04
-1.945533984375000000e+04
-1.945555664062500000e+04
-1.945664257812500000e+04
-1.945738867187500000e+04
-1.945818945312500000e+04
-1.945780664062500000e+04
-1.945694531250000000e+04
-1.945653906250000000e+04
-1.945639648437500000e+04
-1.945548632812500000e+04
-1.945517382812500000e+04
-1.945445507812500000e+04
-1.945414257812500000e+04
-1.945393554687500000e+04
-1.945396289062500000e+04
-1.945415039062500000e+04
-1.945460351562500000e+04
-1.945622265625000000e+04
-1.945689843750000000e+04
-1.945770507812500000e+04
-1.945771289062500000e+04
-1.945768164062500000e+04
-1.945767187500000000e+04
-1.945761132812500000e+04
-1.945760156250000000e+04
-1.945769140625000000e+04
-1.945783984375000000e+04
-1.945790039062500000e+04
-1.945805273437500000e+04
-1.945811328125000000e+04
-1.945814257812500000e+04
-1.945817773437500000e+04
-1.945816406250000000e+04
-1.945800390625000000e+04
-1.945768164062500000e+04
-1.945658984375000000e+04
-1.945645703125000000e+04
-1.945593945312500000e+04
-1.945499609375000000e+04
-1.945446679687500000e+04
-1.945436523437500000e+04
-1.945426367187500000e+04
-1.945389062500000000e+04
-1.945242968750000000e+04
-1.945232617187500000e+04
-1.945191601562500000e+04
-1.945186718750000000e+04
-1.945182226562500000e+04
-1.945157421875000000e+04
-1.945162304687500000e+04
-1.945200390625000000e+04
-1.945211914062500000e+04
-1.945238671875000000e+04
-1.945445312500000000e+04
-1.945468750000000000e+04
-1.945577539062500000e+04
-1.945638867187500000e+04
-1.945667773437500000e+04
-1.945090234375000000e+04
-1.945065234375000000e+04
-1.945053710937500000e+04
-1.945098828125000000e+04
-1.945193554687500000e+04
-1.945219335937500000e+04
-1.945230273437500000e+04
-1.945250000000000000e+04
-1.945258593750000000e+04
-1.945295898437500000e+04
-1.945295507812500000e+04
-1.945287109375000000e+04
-1.945273437500000000e+04
-1.945262500000000000e+04
-1.945255664062500000e+04
-1.945241210937500000e+04
-1.945213476562500000e+04
-1.945211523437500000e+04
-1.945214062500000000e+04
-1.945308789062500000e+04
-1.945322070312500000e+04
-1.945348437500000000e+04
-1.945423632812500000e+04
-1.945468164062500000e+04
-1.945486914062500000e+04
-1.945453125000000000e+04
-1.945372265625000000e+04
-1.945346679687500000e+04
-1.945341601562500000e+04
-1.945340625000000000e+04
-1.945338281250000000e+04
-1.945338476562500000e+04
-1.945344531250000000e+04
-1.945393750000000000e+04
-1.945407421875000000e+04
-1.945421875000000000e+04
-1.945439843750000000e+04
-1.945446875000000000e+04
-1.945486132812500000e+04
-1.945515234375000000e+04
-1.945517382812500000e+04
-1.945368554687500000e+04
-1.945332226562500000e+04
-1.945322656250000000e+04
-1.945311914062500000e+04
-1.945294335937500000e+04
-1.945230664062500000e+04
-1.945220898437500000e+04
-1.945199218750000000e+04
-1.945164843750000000e+04
-1.945134570312500000e+04
-1.945090429687500000e+04
-1.945093750000000000e+04
-1.945095117187500000e+04
-1.945119726562500000e+04
-1.945132421875000000e+04
-1.945141406250000000e+04
-1.945196679687500000e+04
-1.945246875000000000e+04
-1.945246679687500000e+04
-1.945216992187500000e+04
-1.945212500000000000e+04
-1.945235937500000000e+04
-1.945258203125000000e+04
-1.945214453125000000e+04
-1.945190429687500000e+04
-1.945143945312500000e+04
-1.945090625000000000e+04
-1.945150000000000000e+04
-1.945182812500000000e+04
-1.945199023437500000e+04
-1.945247265625000000e+04
-1.945342968750000000e+04
-1.945363476562500000e+04
-1.945420117187500000e+04
-1.945453710937500000e+04
-1.945475976562500000e+04
-1.945484375000000000e+04
-1.945469921875000000e+04
-1.945453710937500000e+04
-1.945422070312500000e+04
-1.945318359375000000e+04
-1.945248632812500000e+04
-1.945237695312500000e+04
-1.945237109375000000e+04
-1.945299414062500000e+04
-1.945362890625000000e+04
-1.945358789062500000e+04
-1.945329101562500000e+04
-1.945311523437500000e+04
-1.945307421875000000e+04
-1.945296875000000000e+04
-1.945272265625000000e+04
-1.945250585937500000e+04
-1.945247656250000000e+04
-1.945245703125000000e+04
-1.945244726562500000e+04
-1.945286328125000000e+04
-1.945362500000000000e+04
-1.945384179687500000e+04
-1.945392773437500000e+04
-1.945389843750000000e+04
-1.945385351562500000e+04
-1.945375390625000000e+04
-1.945303515625000000e+04
-1.945284765625000000e+04
-1.945285742187500000e+04
-1.945298632812500000e+04
-1.945312304687500000e+04
-1.945316992187500000e+04
-1.945317187500000000e+04
-1.945317382812500000e+04
-1.945314843750000000e+04
-1.945313671875000000e+04
-1.945314453125000000e+04
-1.945329101562500000e+04
-1.945332617187500000e+04
-1.945344921875000000e+04
-1.945375000000000000e+04
-1.945367968750000000e+04
-1.945355468750000000e+04
-1.945343554687500000e+04
-1.945340820312500000e+04
-1.945338281250000000e+04
-1.945317773437500000e+04
-1.945309375000000000e+04
-1.945303710937500000e+04
-1.945300390625000000e+04
-1.945288476562500000e+04
-1.945270117187500000e+04
-1.945269726562500000e+04
-1.945275585937500000e+04
-1.945273828125000000e+04
-1.945247460937500000e+04
-1.945124804687500000e+04
-1.945020703125000000e+04
-1.945004296875000000e+04
-1.945000390625000000e+04
-1.945124023437500000e+04
-1.945166015625000000e+04
-1.945221679687500000e+04
-1.945282421875000000e+04
-1.945311914062500000e+04
-1.945317578125000000e+04
-1.945324609375000000e+04
-1.945329101562500000e+04
-1.945334960937500000e+04
-1.945338867187500000e+04
-1.945338281250000000e+04
-1.945333789062500000e+04
-1.945286523437500000e+04
-1.945255468750000000e+04
-1.945212109375000000e+04
-1.945199218750000000e+04
-1.945198242187500000e+04
-1.945217382812500000e+04
-1.945222460937500000e+04
-1.945218750000000000e+04
-1.945215234375000000e+04
-1.945145312500000000e+04
-1.945128320312500000e+04
-1.945093945312500000e+04
-1.945068554687500000e+04
-1.945045703125000000e+04
-1.945033789062500000e+04
-1.945017968750000000e+04
-1.945010937500000000e+04
-1.944999023437500000e+04
-1.944990039062500000e+04
-1.944973437500000000e+04
-1.944900781250000000e+04
-1.944860156250000000e+04
-1.944881250000000000e+04
-1.945009570312500000e+04
-1.945054882812500000e+04
-1.945048828125000000e+04
-1.945037890625000000e+04
-1.945014648437500000e+04
-1.944940429687500000e+04
-1.944886328125000000e+04
-1.944850585937500000e+04
-1.944851562500000000e+04
-1.944865039062500000e+04
-1.944919921875000000e+04
-1.944934570312500000e+04
-1.944955078125000000e+04
-1.944961132812500000e+04
-1.944962695312500000e+04
-1.944964453125000000e+04
-1.944990429687500000e+04
-1.945037890625000000e+04
-1.945148437500000000e+04
-1.945017773437500000e+04
-1.944963476562500000e+04
-1.944821289062500000e+04
-1.944835546875000000e+04
-1.944874023437500000e+04
-1.945295312500000000e+04
-1.945314648437500000e+04
-1.945332617187500000e+04
-1.945395898437500000e+04
-1.945403320312500000e+04
-1.945416406250000000e+04
-1.945412890625000000e+04
-1.945376562500000000e+04
-1.945373437500000000e+04
-1.945383789062500000e+04
-1.945379492187500000e+04
-1.945362500000000000e+04
-1.945353515625000000e+04
-1.945178515625000000e+04
-1.945099218750000000e+04
-1.945057421875000000e+04
-1.945050781250000000e+04
-1.945044335937500000e+04
-1.944951367187500000e+04
-1.944916796875000000e+04
-1.944930859375000000e+04
-1.944983203125000000e+04
-1.945060156250000000e+04
-1.945070312500000000e+04
-1.945080468750000000e+04
-1.945123828125000000e+04
-1.945195312500000000e+04
-1.945201367187500000e+04
-1.945208203125000000e+04
-1.945215234375000000e+04
-1.945219726562500000e+04
-1.945250195312500000e+04
-1.945285742187500000e+04
-1.945311328125000000e+04
-1.945301562500000000e+04
-1.945284765625000000e+04
-1.945240039062500000e+04
-1.945225195312500000e+04
-1.945233789062500000e+04
-1.945236132812500000e+04
-1.945263281250000000e+04
-1.945314257812500000e+04
-1.945320898437500000e+04
-1.945328125000000000e+04
-1.945369140625000000e+04
-1.945371093750000000e+04
-1.945371484375000000e+04
-1.945388281250000000e+04
-1.945395507812500000e+04
-1.945403320312500000e+04
-1.945483398437500000e+04
-1.945526171875000000e+04
-1.945541015625000000e+04
-1.945609179687500000e+04
-1.945617578125000000e+04
-1.945633984375000000e+04
-1.945627734375000000e+04
-1.945572265625000000e+04
-1.945543164062500000e+04
-1.945495312500000000e+04
-1.945469531250000000e+04
-1.945459960937500000e+04
-1.945431250000000000e+04
-1.945423437500000000e+04
-1.945361718750000000e+04
-1.945359375000000000e+04
-1.945359375000000000e+04
-1.945378125000000000e+04
-1.945425195312500000e+04
-1.945437695312500000e+04
-1.945432812500000000e+04
-1.945422070312500000e+04
-1.945418945312500000e+04
-1.945419921875000000e+04
-1.945400195312500000e+04
-1.945380273437500000e+04
-1.945366210937500000e+04
-1.945340234375000000e+04
-1.945189257812500000e+04
-1.945191796875000000e+04
-1.945209570312500000e+04
-1.945223046875000000e+04
-1.945230078125000000e+04
-1.945237304687500000e+04
-1.945252343750000000e+04
-1.945258593750000000e+04
-1.945260937500000000e+04
-1.945258789062500000e+04
-1.945256250000000000e+04
-1.945255664062500000e+04
-1.945175000000000000e+04
-1.945131250000000000e+04
-1.945128320312500000e+04
-1.945126171875000000e+04
-1.945125585937500000e+04
-1.945132617187500000e+04
-1.945166601562500000e+04
-1.945164843750000000e+04
-1.945139257812500000e+04
-1.945134375000000000e+04
-1.945097070312500000e+04
-1.945095507812500000e+04
-1.945097265625000000e+04
-1.945101562500000000e+04
-1.945112695312500000e+04
-1.945116015625000000e+04
-1.945123046875000000e+04
-1.945123632812500000e+04
-1.945125195312500000e+04
-1.945102343750000000e+04
-1.945025781250000000e+04
-1.944987304687500000e+04
-1.945039062500000000e+04
-1.945118164062500000e+04
-1.945278906250000000e+04
-1.945400585937500000e+04
-1.945416796875000000e+04
-1.945424414062500000e+04
-1.945422851562500000e+04
-1.945424218750000000e+04
-1.945410546875000000e+04
-1.945321679687500000e+04
-1.945317187500000000e+04
-1.945323828125000000e+04
-1.945377539062500000e+04
-1.945472265625000000e+04
-1.945491796875000000e+04
-1.945463867187500000e+04
-1.945449609375000000e+04
-1.945414843750000000e+04
-1.945245507812500000e+04
-1.945144921875000000e+04
-1.945135546875000000e+04
-1.945171679687500000e+04
-1.945184375000000000e+04
-1.945201367187500000e+04
-1.945205468750000000e+04
-1.945184179687500000e+04
-1.945109375000000000e+04
-1.944995507812500000e+04
-1.945094531250000000e+04
-1.945154296875000000e+04
-1.945170898437500000e+04
-1.945188476562500000e+04
-1.945304101562500000e+04
-1.945284960937500000e+04
-1.945258789062500000e+04
-1.945245117187500000e+04
-1.945192968750000000e+04
-1.945210351562500000e+04
-1.945248632812500000e+04
-1.945343945312500000e+04
-1.945377343750000000e+04
-1.945411523437500000e+04
-1.945434765625000000e+04
-1.945433593750000000e+04
-1.945426757812500000e+04
-1.945418164062500000e+04
-1.945386914062500000e+04
-1.945361132812500000e+04
-1.945317187500000000e+04
-1.945233593750000000e+04
-1.945219140625000000e+04
-1.945127148437500000e+04
-1.944934765625000000e+04
-1.944915625000000000e+04
-1.944883007812500000e+04
-1.944845117187500000e+04
-1.944856640625000000e+04
-1.944869335937500000e+04
-1.945020507812500000e+04
-1.945121484375000000e+04
-1.945189062500000000e+04
-1.945211523437500000e+04
-1.945225976562500000e+04
-1.945279296875000000e+04
-1.945283593750000000e+04
-1.945268945312500000e+04
-1.945249414062500000e+04
-1.945243359375000000e+04
-1.945237500000000000e+04
-1.945229882812500000e+04
-1.945230078125000000e+04
-1.945265234375000000e+04
-1.945295507812500000e+04
-1.945311523437500000e+04
-1.945324804687500000e+04
-1.945347656250000000e+04
-1.945364843750000000e+04
-1.945374804687500000e+04
-1.945385546875000000e+04
-1.945407812500000000e+04
-1.945433398437500000e+04
-1.945471484375000000e+04
-1.945522851562500000e+04
-1.945550585937500000e+04
-1.945528125000000000e+04
-1.945499414062500000e+04
-1.945477539062500000e+04
-1.945466210937500000e+04
-1.945454296875000000e+04
-1.945318945312500000e+04
-1.945280078125000000e+04
-1.945268359375000000e+04
-1.945238281250000000e+04
-1.945230859375000000e+04
-1.945221484375000000e+04
-1.945222070312500000e+04
-1.945216406250000000e+04
-1.945211914062500000e+04
-1.945200000000000000e+04
-1.945195117187500000e+04
-1.945161328125000000e+04
-1.945149414062500000e+04
-1.945130664062500000e+04
-1.945068164062500000e+04
-1.945002343750000000e+04
-1.944922460937500000e+04
-1.944895312500000000e+04
-1.944858984375000000e+04
-1.944852929687500000e+04
-1.944851953125000000e+04
-1.944850585937500000e+04
-1.944786523437500000e+04
-1.944777343750000000e+04
-1.944667382812500000e+04
-1.944614648437500000e+04
-1.944566601562500000e+04
-1.944553710937500000e+04
-1.944571484375000000e+04
-1.944629492187500000e+04
-1.944713671875000000e+04
-1.944766992187500000e+04
-1.944784375000000000e+04
-1.944843945312500000e+04
-1.944855664062500000e+04
-1.944891406250000000e+04
-1.944899218750000000e+04
-1.944888476562500000e+04
-1.944860156250000000e+04
-1.944734765625000000e+04
-1.944698242187500000e+04
-1.944670898437500000e+04
-1.944670312500000000e+04
-1.944684960937500000e+04
-1.944751171875000000e+04
-1.944761523437500000e+04
-1.944822460937500000e+04
-1.944847851562500000e+04
-1.944863671875000000e+04
-1.944869140625000000e+04
-1.944874609375000000e+04
-1.944893554687500000e+04
-1.944901562500000000e+04
