2.232673454284667969e+01 5.172609165310859680e-02 -2.003859519958496094e+00 5.172609165310859680e-02 2.015534019470214844e+01 -1.106797382235527039e-01 -2.003859519958496094e+00 -1.106797382235527039e-01 3.340145492553710938e+01
2.614036369323730469e+01 5.125855803489685059e-01 -1.474605649709701538e-01 5.125855803489685059e-01 2.363064384460449219e+01 -2.451940536499023438e+00 -1.474605649709701538e-01 -2.451940536499023438e+00 2.796458435058593750e+01
2.729773902893066406e+01 5.706741809844970703e-01 3.559965789318084717e-01 5.706741809844970703e-01 2.488071632385253906e+01 -3.005738258361816406e+00 3.559965789318084717e-01 -3.005738258361816406e+00 2.762096023559570312e+01
2.970457267761230469e+01 5.963914394378662109e-01 1.830886840820312500e+00 5.963914394378662109e-01 2.808347129821777344e+01 -4.461006164550781250e+00 1.830886840820312500e+00 -4.461006164550781250e+00 2.627909851074218750e+01
3.059366035461425781e+01 3.609969615936279297e-01 3.549403667449951172e+00 3.609969615936279297e-01 3.107831382751464844e+01 -6.222238540649414062e+00 3.549403667449951172e+00 -6.222238540649414062e+00 2.328268051147460938e+01
1.621441078186035156e+01 -1.295550823211669922e+00 4.532453060150146484e+00 -1.295550823211669922e+00 2.117843246459960938e+01 -9.278045654296875000e+00 4.532453060150146484e+00 -9.278045654296875000e+00 5.277490139007568359e+00
1.213179111480712891e+01 -1.276592731475830078e+00 3.580682992935180664e+00 -1.276592731475830078e+00 1.384645652770996094e+01 -9.165618896484375000e+00 3.580682992935180664e+00 -9.165618896484375000e+00 2.897991418838500977e+00
1.017504215240478516e+01 -8.950353860855102539e-01 2.809600591659545898e+00 -8.950353860855102539e-01 7.496559619903564453e+00 -8.758141517639160156e+00 2.809600591659545898e+00 -8.758141517639160156e+00 4.490215301513671875e+00
1.000115966796875000e+01 -7.504040002822875977e-01 2.666753768920898438e+00 -7.504040002822875977e-01 6.059984683990478516e+00 -8.603415489196777344e+00 2.666753768920898438e+00 -8.603415489196777344e+00 5.757581710815429688e+00
1.029009819030761719e+01 -1.587269157171249390e-01 2.480538606643676758e+00 -1.587269157171249390e-01 2.778587102890014648e+00 -8.094564437866210938e+00 2.480538606643676758e+00 -8.094564437866210938e+00 1.138216590881347656e+01
1.069649124145507812e+01 4.490104317665100098e-02 2.465842247009277344e+00 4.490104317665100098e-02 2.091827392578125000e+00 -7.932337760925292969e+00 2.465842247009277344e+00 -7.932337760925292969e+00 1.388463783264160156e+01
1.093454933166503906e+01 1.504649966955184937e-01 2.470177412033081055e+00 1.504649966955184937e-01 1.826248645782470703e+00 -7.847836017608642578e+00 2.470177412033081055e+00 -7.847836017608642578e+00 1.523342514038085938e+01
1.288214683532714844e+01 8.714752793312072754e-01 2.501209020614624023e+00 8.714752793312072754e-01 1.326535224914550781e+00 -7.441822052001953125e+00 2.501209020614624023e+00 -7.441822052001953125e+00 2.410875129699707031e+01
1.696052169799804688e+01 2.096117019653320312e+00 1.966603517532348633e+00 2.096117019653320312e+00 3.244687557220458984e+00 -7.135924339294433594e+00 1.966603517532348633e+00 -7.135924339294433594e+00 3.578460693359375000e+01
1.957817649841308594e+01 2.749463081359863281e+00 1.229457139968872070e+00 2.749463081359863281e+00 5.224463939666748047e+00 -7.070937156677246094e+00 1.229457139968872070e+00 -7.070937156677246094e+00 4.021651077270507812e+01
2.761115264892578125e+01 4.765782356262207031e+00 -1.494254589080810547e+00 4.765782356262207031e+00 1.264981365203857422e+01 -6.828336715698242188e+00 -1.494254589080810547e+00 -6.828336715698242188e+00 4.557963562011718750e+01
3.931996154785156250e+01 7.971491813659667969e+00 -3.942448854446411133e+00 7.971491813659667969e+00 3.269215011596679688e+01 -3.590753078460693359e+00 -3.942448854446411133e+00 -3.590753078460693359e+00 4.358551025390625000e+01
3.945109558105468750e+01 8.084808349609375000e+00 -3.495813846588134766e+00 8.084808349609375000e+00 3.505648040771484375e+01 -3.117439508438110352e+00 -3.495813846588134766e+00 -3.117439508438110352e+00 4.240486526489257812e+01
3.797765731811523438e+01 8.256310462951660156e+00 8.818644098937511444e-03 8.256310462951660156e+00 4.511445617675781250e+01 -1.256502985954284668e+00 8.818644098937511444e-03 -1.256502985954284668e+00 3.565297317504882812e+01
3.577470016479492188e+01 8.106770515441894531e+00 3.901496887207031250e+00 8.106770515441894531e+00 5.317918014526367188e+01 -2.031010761857032776e-02 3.901496887207031250e+00 -2.031010761857032776e-02 2.935019874572753906e+01
3.505363464355468750e+01 7.968873977661132812e+00 5.254521369934082031e+00 7.968873977661132812e+00 5.591999053955078125e+01 3.169670104980468750e-01 5.254521369934082031e+00 3.169670104980468750e-01 2.723995590209960938e+01
3.426822280883789062e+01 7.804601669311523438e+00 6.614764213562011719e+00 7.804601669311523438e+00 5.857345962524414062e+01 6.218194961547851562e-01 6.614764213562011719e+00 6.218194961547851562e-01 2.511820602416992188e+01
3.319876861572265625e+01 7.470476627349853516e+00 8.599892616271972656e+00 7.470476627349853516e+00 6.243984222412109375e+01 9.936234354972839355e-01 8.599892616271972656e+00 9.936234354972839355e-01 2.210599327087402344e+01
3.257669830322265625e+01 7.155394554138183594e+00 9.817189216613769531e+00 7.155394554138183594e+00 6.490381622314453125e+01 1.199522852897644043e+00 9.817189216613769531e+00 1.199522852897644043e+00 2.030821037292480469e+01
3.227136230468750000e+01 6.984638690948486328e+00 1.039270687103271484e+01 6.984638690948486328e+00 6.608256530761718750e+01 1.280540585517883301e+00 1.039270687103271484e+01 1.280540585517883301e+00 1.945614051818847656e+01
3.195571899414062500e+01 6.790124893188476562e+00 1.093305397033691406e+01 6.790124893188476562e+00 6.718833923339843750e+01 1.345974206924438477e+00 1.093305397033691406e+01 1.345974206924438477e+00 1.864357185363769531e+01
3.164599800109863281e+01 6.572881698608398438e+00 1.145032501220703125e+01 6.572881698608398438e+00 6.824586486816406250e+01 1.403564810752868652e+00 1.145032501220703125e+01 1.403564810752868652e+00 1.788762283325195312e+01
3.132521057128906250e+01 6.336410999298095703e+00 1.193800258636474609e+01 6.336410999298095703e+00 6.922177886962890625e+01 1.443528652191162109e+00 1.193800258636474609e+01 1.443528652191162109e+00 1.718861198425292969e+01
2.694994354248046875e+01 3.206213235855102539e+00 1.485396385192871094e+01 3.206213235855102539e+00 7.378374481201171875e+01 1.387265801429748535e+00 1.485396385192871094e+01 1.387265801429748535e+00 1.327015399932861328e+01
2.179650115966796875e+01 2.766813039779663086e-01 1.482340240478515625e+01 2.766813039779663086e-01 7.035851287841796875e+01 1.169646501541137695e+00 1.482340240478515625e+01 1.169646501541137695e+00 1.399538040161132812e+01
1.733509063720703125e+01 -1.979972958564758301e+00 1.409587192535400391e+01 -1.979972958564758301e+00 6.513763427734375000e+01 1.161563754081726074e+00 1.409587192535400391e+01 1.161563754081726074e+00 1.585958480834960938e+01
1.547435092926025391e+01 -2.886943817138671875e+00 1.372697067260742188e+01 -2.886943817138671875e+00 6.259867858886718750e+01 1.219334602355957031e+00 1.372697067260742188e+01 1.219334602355957031e+00 1.673822784423828125e+01
8.065752029418945312e+00 -1.084310531616210938e+01 9.622323036193847656e+00 -1.084310531616210938e+01 3.300045013427734375e+01 2.656842708587646484e+00 9.622323036193847656e+00 2.656842708587646484e+00 2.980128860473632812e+01
1.826072311401367188e+01 -1.103773975372314453e+01 7.422655105590820312e+00 -1.103773975372314453e+01 2.743862342834472656e+01 2.509441077709197998e-01 7.422655105590820312e+00 2.509441077709197998e-01 3.970785522460937500e+01
1.903461837768554688e+01 -1.102160739898681641e+01 7.222578048706054688e+00 -1.102160739898681641e+01 2.731498908996582031e+01 -9.642071276903152466e-02 7.222578048706054688e+00 -9.642071276903152466e-02 4.048386383056640625e+01
2.385963630676269531e+01 -1.109100437164306641e+01 5.766753673553466797e+00 -1.109100437164306641e+01 2.719890213012695312e+01 -2.818394899368286133e+00 5.766753673553466797e+00 -2.818394899368286133e+00 4.549161911010742188e+01
2.510861968994140625e+01 -1.118220424652099609e+01 5.319858074188232422e+00 -1.118220424652099609e+01 2.746620178222656250e+01 -3.564323663711547852e+00 5.319858074188232422e+00 -3.564323663711547852e+00 4.666239929199218750e+01
2.625104904174804688e+01 -1.129546928405761719e+01 4.817329406738281250e+00 -1.129546928405761719e+01 2.774156951904296875e+01 -4.220559597015380859e+00 4.817329406738281250e+00 -4.220559597015380859e+00 4.762398529052734375e+01
2.854869842529296875e+01 -1.161243438720703125e+01 3.564297437667846680e+00 -1.161243438720703125e+01 2.855470466613769531e+01 -5.123899936676025391e+00 3.564297437667846680e+00 -5.123899936676025391e+00 4.890673828125000000e+01
3.034406852722167969e+01 -1.180335807800292969e+01 2.311768293380737305e+00 -1.180335807800292969e+01 2.921678161621093750e+01 -5.304286956787109375e+00 2.311768293380737305e+00 -5.304286956787109375e+00 4.909957504272460938e+01
3.095839118957519531e+01 -1.186087703704833984e+01 1.816066741943359375e+00 -1.186087703704833984e+01 2.943612861633300781e+01 -5.260002136230468750e+00 1.816066741943359375e+00 -5.260002136230468750e+00 4.901586151123046875e+01
3.287734603881835938e+01 -1.197661113739013672e+01 1.995333284139633179e-01 -1.197661113739013672e+01 3.013352584838867188e+01 -4.798449039459228516e+00 1.995333284139633179e-01 -4.798449039459228516e+00 4.833552932739257812e+01
3.635569000244140625e+01 -1.187228107452392578e+01 -2.836643695831298828e+00 -1.187228107452392578e+01 3.140180778503417969e+01 -3.157728433609008789e+00 -2.836643695831298828e+00 -3.157728433609008789e+00 4.592578506469726562e+01
3.929626464843750000e+01 -1.146245861053466797e+01 -5.109209060668945312e+00 -1.146245861053466797e+01 3.259103393554687500e+01 -1.399367809295654297e+00 -5.109209060668945312e+00 -1.399367809295654297e+00 4.315388107299804688e+01
4.292264556884765625e+01 -1.043593978881835938e+01 -7.040863990783691406e+00 -1.043593978881835938e+01 3.441739654541015625e+01 8.611601591110229492e-01 -7.040863990783691406e+00 8.611601591110229492e-01 3.869630813598632812e+01
4.364262008666992188e+01 -1.016429519653320312e+01 -7.247356414794921875e+00 -1.016429519653320312e+01 3.484316253662109375e+01 1.262611150741577148e+00 -7.247356414794921875e+00 1.262611150741577148e+00 3.772903442382812500e+01
4.502200317382812500e+01 -9.590492248535156250e+00 -7.496844768524169922e+00 -9.590492248535156250e+00 3.569726562500000000e+01 2.068265914916992188e+00 -7.496844768524169922e+00 2.068265914916992188e+00 3.573488235473632812e+01
4.685332489013671875e+01 -8.606648445129394531e+00 -7.416352748870849609e+00 -8.606648445129394531e+00 3.695549774169921875e+01 3.115614652633666992e+00 -7.416352748870849609e+00 3.115614652633666992e+00 3.259631729125976562e+01
4.844768524169921875e+01 -7.613083362579345703e+00 -6.876203060150146484e+00 -7.613083362579345703e+00 3.823720932006835938e+01 3.977925777435302734e+00 -6.876203060150146484e+00 3.977925777435302734e+00 2.951455116271972656e+01
4.887862014770507812e+01 -7.296359062194824219e+00 -6.614227294921875000e+00 -7.296359062194824219e+00 3.860536575317382812e+01 4.225685119628906250e+00 -6.614227294921875000e+00 4.225685119628906250e+00 2.850932121276855469e+01
5.053929138183593750e+01 -6.023439884185791016e+00 -5.050975799560546875e+00 -6.023439884185791016e+00 4.036439514160156250e+01 5.199695110321044922e+00 -5.050975799560546875e+00 5.199695110321044922e+00 2.410321998596191406e+01
5.085402679443359375e+01 -5.700625896453857422e+00 -4.438799858093261719e+00 -5.700625896453857422e+00 4.085519409179687500e+01 5.442508697509765625e+00 -4.438799858093261719e+00 5.442508697509765625e+00 2.267794036865234375e+01
5.112383270263671875e+01 -5.357967376708984375e+00 -3.502744913101196289e+00 -5.357967376708984375e+00 4.151013183593750000e+01 5.704024314880371094e+00 -3.502744913101196289e+00 5.704024314880371094e+00 2.073227691650390625e+01
5.029478073120117188e+01 -5.732685565948486328e+00 -4.280062675476074219e+00 -5.732685565948486328e+00 4.084320068359375000e+01 4.717990875244140625e+00 -4.280062675476074219e+00 4.717990875244140625e+00 2.333712959289550781e+01
5.026661300659179688e+01 -5.869113445281982422e+00 -5.394631862640380859e+00 -5.869113445281982422e+00 4.030767822265625000e+01 3.841233491897583008e+00 -5.394631862640380859e+00 3.841233491897583008e+00 2.684314155578613281e+01
5.055534362792968750e+01 -5.925403118133544922e+00 -6.610702037811279297e+00 -5.925403118133544922e+00 3.983055114746093750e+01 2.658083677291870117e+00 -6.610702037811279297e+00 2.658083677291870117e+00 3.103117561340332031e+01
5.177300643920898438e+01 -6.084027767181396484e+00 -8.568587303161621094e+00 -6.084027767181396484e+00 3.933758163452148438e+01 -5.449458584189414978e-02 -8.568587303161621094e+00 -5.449458584189414978e-02 3.835542297363281250e+01
5.348020935058593750e+01 -6.740702629089355469e+00 -9.578602790832519531e+00 -6.740702629089355469e+00 3.902956390380859375e+01 -3.879311561584472656e+00 -9.578602790832519531e+00 -3.879311561584472656e+00 4.441028213500976562e+01
5.434510040283203125e+01 -7.154574394226074219e+00 -9.118785858154296875e+00 -7.154574394226074219e+00 3.888348388671875000e+01 -5.805121421813964844e+00 -9.118785858154296875e+00 -5.805121421813964844e+00 4.596126556396484375e+01
5.599908065795898438e+01 -7.132442474365234375e+00 -8.044817924499511719e+00 -7.132442474365234375e+00 3.891689300537109375e+01 -7.854228019714355469e+00 -8.044817924499511719e+00 -7.854228019714355469e+00 4.721518707275390625e+01
5.920188903808593750e+01 -6.011613368988037109e+00 -7.601072311401367188e+00 -6.011613368988037109e+00 3.932010269165039062e+01 -9.590334892272949219e+00 -7.601072311401367188e+00 -9.590334892272949219e+00 4.831807708740234375e+01
5.990634536743164062e+01 -5.676187038421630859e+00 -7.656473159790039062e+00 -5.676187038421630859e+00 3.945058822631835938e+01 -9.827116012573242188e+00 -7.656473159790039062e+00 -9.827116012573242188e+00 4.844955444335937500e+01
6.144580078125000000e+01 -4.867588996887207031e+00 -7.887650012969970703e+00 -4.867588996887207031e+00 3.976479339599609375e+01 -1.025923919677734375e+01 -7.887650012969970703e+00 -1.025923919677734375e+01 4.862635421752929688e+01
6.394240570068359375e+01 -3.330399751663208008e+00 -8.537933349609375000e+00 -3.330399751663208008e+00 4.038059234619140625e+01 -1.067606353759765625e+01 -8.537933349609375000e+00 -1.067606353759765625e+01 4.847085571289062500e+01
6.760622406005859375e+01 -7.555853575468063354e-02 -9.817131996154785156e+00 -7.555853575468063354e-02 4.149600982666015625e+01 -1.055524921417236328e+01 -9.817131996154785156e+00 -1.055524921417236328e+01 4.660912704467773438e+01
6.851989746093750000e+01 1.417959332466125488e+00 -1.015155410766601562e+01 1.417959332466125488e+00 4.194911956787109375e+01 -1.018058013916015625e+01 -1.015155410766601562e+01 -1.018058013916015625e+01 4.521667098999023438e+01
6.907793426513671875e+01 3.716193437576293945e+00 -1.027103042602539062e+01 3.716193437576293945e+00 4.267343902587890625e+01 -9.293624877929687500e+00 -1.027103042602539062e+01 -9.293624877929687500e+00 4.249918365478515625e+01
6.736519622802734375e+01 7.492459774017333984e+00 -9.115363121032714844e+00 7.492459774017333984e+00 4.406115341186523438e+01 -6.995772838592529297e+00 -9.115363121032714844e+00 -6.995772838592529297e+00 3.667893981933593750e+01
6.106441116333007812e+01 1.219962692260742188e+01 -5.243317604064941406e+00 1.219962692260742188e+01 4.649570846557617188e+01 -3.137302398681640625e+00 -5.243317604064941406e+00 -3.137302398681640625e+00 2.833305549621582031e+01
5.083696365356445312e+01 1.670310020446777344e+01 9.149070382118225098e-01 1.670310020446777344e+01 5.063330459594726562e+01 1.220601916313171387e+00 9.149070382118225098e-01 1.220601916313171387e+00 2.072803688049316406e+01
4.758746719360351562e+01 1.746364021301269531e+01 2.787966251373291016e+00 1.746364021301269531e+01 5.215546417236328125e+01 2.193029403686523438e+00 2.787966251373291016e+00 2.193029403686523438e+00 1.945009994506835938e+01
4.438193893432617188e+01 1.749899673461914062e+01 4.520894050598144531e+00 1.749899673461914062e+01 5.353913497924804688e+01 2.794501781463623047e+00 4.520894050598144531e+00 2.794501781463623047e+00 1.880461120605468750e+01
4.382092285156250000e+01 1.739313888549804688e+01 4.787138938903808594e+00 1.739313888549804688e+01 5.370570373535156250e+01 2.838514089584350586e+00 4.787138938903808594e+00 2.838514089584350586e+00 1.875474357604980469e+01
4.124015808105468750e+01 1.633211898803710938e+01 5.738486766815185547e+00 1.633211898803710938e+01 5.383073043823242188e+01 2.742635488510131836e+00 5.738486766815185547e+00 2.742635488510131836e+00 1.847404289245605469e+01
3.541007995605468750e+01 9.038295745849609375e+00 3.763343334197998047e+00 9.038295745849609375e+00 4.612268066406250000e+01 3.414022028446197510e-01 3.763343334197998047e+00 3.414022028446197510e-01 1.678191566467285156e+01
3.495638656616210938e+01 7.895129203796386719e+00 2.811879396438598633e+00 7.895129203796386719e+00 4.446128082275390625e+01 3.269278630614280701e-02 2.811879396438598633e+00 3.269278630614280701e-02 1.696879386901855469e+01
3.330963897705078125e+01 2.830492258071899414e+00 -4.467686653137207031e+00 2.830492258071899414e+00 3.575789260864257812e+01 -8.439154028892517090e-01 -4.467686653137207031e+00 -8.439154028892517090e-01 2.235823059082031250e+01
3.288526916503906250e+01 2.518183231353759766e+00 -5.324610710144042969e+00 2.518183231353759766e+00 3.478294372558593750e+01 -8.776735067367553711e-01 -5.324610710144042969e+00 -8.776735067367553711e-01 2.336086273193359375e+01
2.567993354797363281e+01 4.683860301971435547e+00 1.686551809310913086e+00 4.683860301971435547e+00 3.484564208984375000e+01 -3.806490004062652588e-01 1.686551809310913086e+00 -3.806490004062652588e-01 1.842122840881347656e+01
2.583019447326660156e+01 4.728646278381347656e+00 2.141988515853881836e+00 4.728646278381347656e+00 3.521479034423828125e+01 -1.622647494077682495e-01 2.141988515853881836e+00 -1.622647494077682495e-01 1.812508010864257812e+01
2.603390312194824219e+01 4.787466049194335938e+00 2.539123058319091797e+00 4.787466049194335938e+00 3.573631286621093750e+01 5.824491009116172791e-02 2.539123058319091797e+00 5.824491009116172791e-02 1.778356361389160156e+01
3.523004913330078125e+01 6.925918102264404297e+00 4.125374317169189453e+00 6.925918102264404297e+00 4.523431396484375000e+01 4.197705268859863281e+00 4.125374317169189453e+00 4.197705268859863281e+00 1.517280483245849609e+01
3.613849258422851562e+01 6.848732471466064453e+00 4.053476810455322266e+00 6.848732471466064453e+00 4.569702911376953125e+01 4.480175018310546875e+00 4.053476810455322266e+00 4.480175018310546875e+00 1.522570419311523438e+01
4.564605331420898438e+01 9.367613792419433594e+00 -5.503751277923583984e+00 9.367613792419433594e+00 5.136474227905273438e+01 4.475070476531982422e+00 -5.503751277923583984e+00 4.475070476531982422e+00 2.167579078674316406e+01
4.783125686645507812e+01 9.188606262207031250e+00 -7.136044502258300781e+00 9.188606262207031250e+00 5.181113052368164062e+01 3.487140178680419922e+00 -7.136044502258300781e+00 3.487140178680419922e+00 2.359789466857910156e+01
4.606507492065429688e+01 6.424376487731933594e+00 -5.990491390228271484e+00 6.424376487731933594e+00 4.947755432128906250e+01 1.246940255165100098e+00 -5.990491390228271484e+00 1.246940255165100098e+00 2.793503379821777344e+01
4.517343902587890625e+01 5.562944889068603516e+00 -4.991339683532714844e+00 5.562944889068603516e+00 4.855223846435546875e+01 1.070288777351379395e+00 -4.991339683532714844e+00 1.070288777351379395e+00 2.822091484069824219e+01
4.404546737670898438e+01 4.550740718841552734e+00 -3.922376155853271484e+00 4.550740718841552734e+00 4.698205184936523438e+01 1.114134311676025391e+00 -3.922376155853271484e+00 1.114134311676025391e+00 2.759808158874511719e+01
3.854141235351562500e+01 -4.912485480308532715e-01 -2.709010601043701172e+00 -4.912485480308532715e-01 4.461432647705078125e+01 3.168112516403198242e+00 -2.709010601043701172e+00 3.168112516403198242e+00 3.240474700927734375e+01
3.827893447875976562e+01 -1.106377482414245605e+00 -2.936885356903076172e+00 -1.106377482414245605e+00 4.423241043090820312e+01 3.588210105895996094e+00 -2.936885356903076172e+00 3.588210105895996094e+00 3.293931198120117188e+01
3.694512939453125000e+01 -2.506702899932861328e+00 -4.062973976135253906e+00 -2.506702899932861328e+00 4.484087371826171875e+01 4.511022090911865234e+00 -4.062973976135253906e+00 4.511022090911865234e+00 3.349630737304687500e+01
3.598119735717773438e+01 -4.401524066925048828e+00 -5.329482078552246094e+00 -4.401524066925048828e+00 4.574498748779296875e+01 5.961867332458496094e+00 -5.329482078552246094e+00 5.961867332458496094e+00 3.576197052001953125e+01
3.441860961914062500e+01 -6.593124866485595703e+00 -6.799150943756103516e+00 -6.593124866485595703e+00 4.748620605468750000e+01 7.130455493927001953e+00 -6.799150943756103516e+00 7.130455493927001953e+00 3.837163925170898438e+01
3.441807174682617188e+01 -7.000671386718750000e+00 -6.947648048400878906e+00 -7.000671386718750000e+00 4.749144363403320312e+01 7.338748455047607422e+00 -6.947648048400878906e+00 7.338748455047607422e+00 3.891147994995117188e+01
3.428801345825195312e+01 -7.200843811035156250e+00 -7.015486717224121094e+00 -7.200843811035156250e+00 4.754536437988281250e+01 7.381519794464111328e+00 -7.015486717224121094e+00 7.381519794464111328e+00 3.938244628906250000e+01
3.373869323730468750e+01 -7.115136623382568359e+00 -6.828436851501464844e+00 -7.115136623382568359e+00 4.786164093017578125e+01 7.243610382080078125e+00 -6.828436851501464844e+00 7.243610382080078125e+00 4.057395935058593750e+01
3.491263580322265625e+01 -6.360103130340576172e+00 -4.242267608642578125e+00 -6.360103130340576172e+00 4.726553344726562500e+01 6.765717029571533203e+00 -4.242267608642578125e+00 6.765717029571533203e+00 4.158922958374023438e+01
3.527686691284179688e+01 -6.104235649108886719e+00 -3.904760122299194336e+00 -6.104235649108886719e+00 4.708953094482421875e+01 6.648808479309082031e+00 -3.904760122299194336e+00 6.648808479309082031e+00 4.163607788085937500e+01
3.585170745849609375e+01 -5.962321758270263672e+00 -3.448014974594116211e+00 -5.962321758270263672e+00 4.675233459472656250e+01 6.551200389862060547e+00 -3.448014974594116211e+00 6.551200389862060547e+00 4.163008880615234375e+01
3.708643341064453125e+01 -5.465418815612792969e+00 -1.900727152824401855e+00 -5.465418815612792969e+00 4.632841110229492188e+01 6.609723567962646484e+00 -1.900727152824401855e+00 6.609723567962646484e+00 4.192612457275390625e+01
3.858998107910156250e+01 -4.848958969116210938e+00 -4.470741748809814453e-01 -4.848958969116210938e+00 4.588468933105468750e+01 6.615143299102783203e+00 -4.470741748809814453e-01 6.615143299102783203e+00 4.264318847656250000e+01
4.175012207031250000e+01 -3.296004056930541992e+00 1.186111927032470703e+00 -3.296004056930541992e+00 4.468141174316406250e+01 6.753188610076904297e+00 1.186111927032470703e+00 6.753188610076904297e+00 4.496445083618164062e+01
4.351069259643554688e+01 -2.217986822128295898e+00 2.583841800689697266e+00 -2.217986822128295898e+00 4.417384338378906250e+01 7.138316631317138672e+00 2.583841800689697266e+00 7.138316631317138672e+00 4.701715469360351562e+01
4.995863723754882812e+01 -6.794939637184143066e-01 4.715458393096923828e+00 -6.794939637184143066e-01 4.227241516113281250e+01 7.593976020812988281e+00 4.715458393096923828e+00 7.593976020812988281e+00 5.436605453491210938e+01
5.610957336425781250e+01 2.901274710893630981e-02 5.408171176910400391e+00 2.901274710893630981e-02 4.140723037719726562e+01 7.417026996612548828e+00 5.408171176910400391e+00 7.417026996612548828e+00 6.164267349243164062e+01
5.779304504394531250e+01 -8.070404827594757080e-02 5.384780883789062500e+00 -8.070404827594757080e-02 4.157400512695312500e+01 7.200744628906250000e+00 5.384780883789062500e+00 7.200744628906250000e+00 6.324454116821289062e+01
6.140229415893554688e+01 -8.569359779357910156e-01 3.898068904876708984e+00 -8.569359779357910156e-01 4.180085372924804688e+01 6.131268024444580078e+00 3.898068904876708984e+00 6.131268024444580078e+00 6.477429962158203125e+01
6.314227294921875000e+01 -3.610193252563476562e+00 -1.489776492118835449e+00 -3.610193252563476562e+00 4.310572052001953125e+01 4.295883178710937500e+00 -1.489776492118835449e+00 4.295883178710937500e+00 5.710070800781250000e+01
6.270516204833984375e+01 -3.824729442596435547e+00 -1.940506815910339355e+00 -3.824729442596435547e+00 4.335366058349609375e+01 4.318133831024169922e+00 -1.940506815910339355e+00 4.318133831024169922e+00 5.604005432128906250e+01
6.185488510131835938e+01 -4.480557918548583984e+00 -2.881008625030517578e+00 -4.480557918548583984e+00 4.336610031127929688e+01 4.433056354522705078e+00 -2.881008625030517578e+00 4.433056354522705078e+00 5.347032546997070312e+01
6.152918624877929688e+01 -4.658102989196777344e+00 -3.220046758651733398e+00 -4.658102989196777344e+00 4.321404266357421875e+01 4.540350914001464844e+00 -3.220046758651733398e+00 4.540350914001464844e+00 5.205418014526367188e+01
6.016300201416015625e+01 -5.074192523956298828e+00 -3.632922410964965820e+00 -5.074192523956298828e+00 4.299533843994140625e+01 5.073760986328125000e+00 -3.632922410964965820e+00 5.073760986328125000e+00 4.773525619506835938e+01
5.933141708374023438e+01 -5.213795661926269531e+00 -3.759383916854858398e+00 -5.213795661926269531e+00 4.299272918701171875e+01 5.367658138275146484e+00 -3.759383916854858398e+00 5.367658138275146484e+00 4.635181808471679688e+01
5.531891250610351562e+01 -6.059235572814941406e+00 -3.501514434814453125e+00 -6.059235572814941406e+00 4.228149032592773438e+01 6.351789951324462891e+00 -3.501514434814453125e+00 6.351789951324462891e+00 3.941374969482421875e+01
4.904928207397460938e+01 -7.011471271514892578e+00 -1.990046858787536621e+00 -7.011471271514892578e+00 4.025627136230468750e+01 7.818086624145507812e+00 -1.990046858787536621e+00 7.818086624145507812e+00 3.093811798095703125e+01
4.810837936401367188e+01 -7.259746551513671875e+00 -1.696036934852600098e+00 -7.259746551513671875e+00 3.998398971557617188e+01 7.999269485473632812e+00 -1.696036934852600098e+00 7.999269485473632812e+00 3.007949638366699219e+01
4.719347000122070312e+01 -7.534096240997314453e+00 -1.513459324836730957e+00 -7.534096240997314453e+00 3.966762542724609375e+01 8.172151565551757812e+00 -1.513459324836730957e+00 8.172151565551757812e+00 2.925904464721679688e+01
4.491325378417968750e+01 -7.793749809265136719e+00 -1.339203476905822754e+00 -7.793749809265136719e+00 3.815003585815429688e+01 8.545175552368164062e+00 -1.339203476905822754e+00 8.545175552368164062e+00 2.691331100463867188e+01
3.969452667236328125e+01 -8.495695114135742188e+00 -1.965081810951232910e+00 -8.495695114135742188e+00 3.420061492919921875e+01 9.402530670166015625e+00 -1.965081810951232910e+00 9.402530670166015625e+00 2.461215591430664062e+01
3.939652633666992188e+01 -8.411808967590332031e+00 -2.275046586990356445e+00 -8.411808967590332031e+00 3.395403671264648438e+01 9.408186912536621094e+00 -2.275046586990356445e+00 9.408186912536621094e+00 2.476337242126464844e+01
3.947081375122070312e+01 -8.648578643798828125e+00 -4.041838169097900391e+00 -8.648578643798828125e+00 3.272364807128906250e+01 9.168898582458496094e+00 -4.041838169097900391e+00 9.168898582458496094e+00 2.584919166564941406e+01
3.992213439941406250e+01 -8.725702285766601562e+00 -4.661128520965576172e+00 -8.725702285766601562e+00 3.255292129516601562e+01 9.022159576416015625e+00 -4.661128520965576172e+00 9.022159576416015625e+00 2.642493629455566406e+01
4.366910934448242188e+01 -1.044122314453125000e+01 -7.344587326049804688e+00 -1.044122314453125000e+01 3.137904357910156250e+01 8.925390243530273438e+00 -7.344587326049804688e+00 8.925390243530273438e+00 3.547964859008789062e+01
4.680444335937500000e+01 -1.101345252990722656e+01 -7.637160301208496094e+00 -1.101345252990722656e+01 3.219389724731445312e+01 9.660017967224121094e+00 -7.637160301208496094e+00 9.660017967224121094e+00 4.146811294555664062e+01
4.770462417602539062e+01 -1.076944828033447266e+01 -7.295812129974365234e+00 -1.076944828033447266e+01 3.295972442626953125e+01 9.887371063232421875e+00 -7.295812129974365234e+00 9.887371063232421875e+00 4.332634735107421875e+01
4.965272140502929688e+01 -9.999310493469238281e+00 -6.225319385528564453e+00 -9.999310493469238281e+00 3.528718948364257812e+01 1.082516193389892578e+01 -6.225319385528564453e+00 1.082516193389892578e+01 4.650223922729492188e+01
5.002306365966796875e+01 -9.757961273193359375e+00 -5.919143199920654297e+00 -9.757961273193359375e+00 3.604438018798828125e+01 1.100597476959228516e+01 -5.919143199920654297e+00 1.100597476959228516e+01 4.737879943847656250e+01
5.039453887939453125e+01 -9.436968803405761719e+00 -5.585880756378173828e+00 -9.436968803405761719e+00 3.685910797119140625e+01 1.112670612335205078e+01 -5.585880756378173828e+00 1.112670612335205078e+01 4.820812225341796875e+01
6.424676513671875000e+01 3.121788501739501953e+00 3.340139865875244141e+00 3.121788501739501953e+00 5.833703231811523438e+01 1.018918514251708984e+01 3.340139865875244141e+00 1.018918514251708984e+01 5.776513671875000000e+01
6.521865844726562500e+01 3.588224649429321289e+00 3.750808238983154297e+00 3.588224649429321289e+00 5.951323699951171875e+01 9.809482574462890625e+00 3.750808238983154297e+00 9.809482574462890625e+00 5.844138717651367188e+01
7.288809967041015625e+01 4.303597450256347656e+00 5.860507011413574219e+00 4.303597450256347656e+00 6.933598327636718750e+01 3.046831369400024414e+00 5.860507011413574219e+00 3.046831369400024414e+00 6.402314758300781250e+01