-2.280040625000000000e+04
-2.279572656250000000e+04
-2.279437890625000000e+04
-2.279075976562500000e+04
-2.278660937500000000e+04
-2.277996679687500000e+04
-2.277977929687500000e+04
-2.277956835937500000e+04
-2.277946289062500000e+04
-2.277903125000000000e+04
-2.277885546875000000e+04
-2.277876953125000000e+04
-2.277822656250000000e+04
-2.277761132812500000e+04
-2.277741796875000000e+04
-2.277756054687500000e+04
-2.277984960937500000e+04
-2.278003515625000000e+04
-2.278033593750000000e+04
-2.278013281250000000e+04
-2.278002734375000000e+04
-2.277990234375000000e+04
-2.277971679687500000e+04
-2.277960546875000000e+04
-2.277956250000000000e+04
-2.277952148437500000e+04
-2.277949218750000000e+04
-2.277946484375000000e+04
-2.277962109375000000e+04
-2.278008984375000000e+04
-2.278049023437500000e+04
-2.278064062500000000e+04
-2.277999609375000000e+04
-2.277988476562500000e+04
-2.277994531250000000e+04
-2.278039648437500000e+04
-2.278049023437500000e+04
-2.278056054687500000e+04
-2.278062500000000000e+04
-2.278062695312500000e+04
-2.278062109375000000e+04
-2.278059765625000000e+04
-2.278055273437500000e+04
-2.278049218750000000e+04
-2.278038085937500000e+04
-2.278034570312500000e+04
-2.278026953125000000e+04
-2.278013281250000000e+04
-2.277996093750000000e+04
-2.277990039062500000e+04
-2.277955664062500000e+04
-2.277941992187500000e+04
-2.277919726562500000e+04
-2.277962304687500000e+04
-2.278022656250000000e+04
-2.278097265625000000e+04
-2.278223828125000000e+04
-2.278310546875000000e+04
-2.278309375000000000e+04
-2.278275195312500000e+04
-2.278225000000000000e+04
-2.278217382812500000e+04
-2.278201171875000000e+04
-2.278179687500000000e+04
-2.278153515625000000e+04
-2.278148828125000000e+04
-2.278147656250000000e+04
-2.278166406250000000e+04
-2.278233398437500000e+04
-2.278354296875000000e+04
-2.278387304687500000e+04
-2.278407421875000000e+04
-2.278408984375000000e+04
-2.278402148437500000e+04
-2.278299804687500000e+04
-2.278281835937500000e+04
-2.278231835937500000e+04
-2.278239648437500000e+04
-2.278433007812500000e+04
-2.278434570312500000e+04
-2.278434765625000000e+04
-2.278306640625000000e+04
-2.278290039062500000e+04
-2.278096679687500000e+04
-2.278049609375000000e+04
-2.277959960937500000e+04
-2.277959765625000000e+04
-2.277976757812500000e+04
-2.278106445312500000e+04
-2.278121093750000000e+04
-2.278162304687500000e+04
-2.278208984375000000e+04
-2.278251562500000000e+04
-2.278253710937500000e+04
-2.278254687500000000e+04
-2.278251757812500000e+04
-2.278205664062500000e+04
-2.278195898437500000e+04
-2.278185546875000000e+04
-2.278163085937500000e+04
-2.278139843750000000e+04
-2.278094335937500000e+04
-2.278073632812500000e+04
-2.278035156250000000e+04
-2.278036132812500000e+04
-2.278045312500000000e+04
-2.278079492187500000e+04
-2.278179687500000000e+04
-2.278188867187500000e+04
-2.278207031250000000e+04
-2.278216015625000000e+04
-2.278237695312500000e+04
-2.278243750000000000e+04
-2.278258789062500000e+04
-2.278245507812500000e+04
-2.278242187500000000e+04
-2.278239062500000000e+04
-2.278231250000000000e+04
-2.278218164062500000e+04
-2.278215625000000000e+04
-2.278193945312500000e+04
-2.278179296875000000e+04
-2.278084765625000000e+04
-2.278081640625000000e+04
-2.278095507812500000e+04
-2.278142187500000000e+04
-2.278155859375000000e+04
-2.278170507812500000e+04
-2.278275781250000000e+04
-2.278263867187500000e+04
-2.278068554687500000e+04
-2.278052929687500000e+04
-2.278014257812500000e+04
-2.277988085937500000e+04
-2.277984960937500000e+04
-2.278020507812500000e+04
-2.278060156250000000e+04
-2.278147070312500000e+04
-2.278168945312500000e+04
-2.278236328125000000e+04
-2.278319140625000000e+04
-2.278401367187500000e+04
-2.278403906250000000e+04
-2.278405468750000000e+04
-2.278406054687500000e+04
-2.278395312500000000e+04
-2.278356640625000000e+04
-2.278288281250000000e+04
-2.278264453125000000e+04
-2.278228320312500000e+04
-2.278151562500000000e+04
-2.278132421875000000e+04
-2.278145703125000000e+04
-2.278152929687500000e+04
-2.278175976562500000e+04
-2.278182421875000000e+04
-2.278187695312500000e+04
-2.278195898437500000e+04
-2.278194335937500000e+04
-2.278192773437500000e+04
-2.278190039062500000e+04
-2.278189062500000000e+04
-2.278200781250000000e+04
-2.278244335937500000e+04
-2.278253906250000000e+04
-2.278238281250000000e+04
-2.278212109375000000e+04
-2.278154101562500000e+04
-2.278131054687500000e+04
-2.278122070312500000e+04
-2.278161718750000000e+04
-2.278162890625000000e+04
-2.278162304687500000e+04
-2.278156445312500000e+04
-2.278147851562500000e+04
-2.278144531250000000e+04
-2.278120312500000000e+04
-2.278119335937500000e+04
-2.278117382812500000e+04
-2.278066796875000000e+04
-2.278058984375000000e+04
-2.278048046875000000e+04
-2.277984960937500000e+04
-2.277963867187500000e+04
-2.277947070312500000e+04
-2.277883984375000000e+04
-2.277869921875000000e+04
-2.277899804687500000e+04
-2.277902539062500000e+04
-2.277923632812500000e+04
-2.277994531250000000e+04
-2.278011132812500000e+04
-2.278027734375000000e+04
-2.278040429687500000e+04
-2.278137304687500000e+04
-2.278169531250000000e+04
-2.278191601562500000e+04
-2.278118945312500000e+04
-2.278119335937500000e+04
-2.278133398437500000e+04
-2.278221093750000000e+04
-2.278261914062500000e+04
-2.278295898437500000e+04
-2.278327929687500000e+04
-2.278331835937500000e+04
-2.278350390625000000e+04
-2.278357226562500000e+04
-2.278353320312500000e+04
-2.278330664062500000e+04
-2.278323046875000000e+04
-2.278182226562500000e+04
-2.278155078125000000e+04
-2.278158984375000000e+04
-2.278161328125000000e+04
-2.278201953125000000e+04
-2.278208007812500000e+04
-2.278188867187500000e+04
-2.278183203125000000e+04
-2.278142773437500000e+04
-2.278126367187500000e+04
-2.278118164062500000e+04
-2.278117578125000000e+04
-2.278116992187500000e+04
-2.278116796875000000e+04
-2.278112109375000000e+04
-2.278103906250000000e+04
-2.278093945312500000e+04
-2.278060351562500000e+04
-2.278048632812500000e+04
-2.278041992187500000e+04
-2.277968359375000000e+04
-2.277989843750000000e+04
-2.277998632812500000e+04
-2.278007226562500000e+04
-2.278006250000000000e+04
-2.278006640625000000e+04
-2.278034179687500000e+04
-2.278039843750000000e+04
-2.278090234375000000e+04
-2.278109765625000000e+04
-2.278113281250000000e+04
-2.278121289062500000e+04
-2.278126757812500000e+04
-2.278130468750000000e+04
-2.278200781250000000e+04
-2.278248828125000000e+04
-2.278250000000000000e+04
-2.278193359375000000e+04
-2.278181835937500000e+04
-2.278169726562500000e+04
-2.278156835937500000e+04
-2.278057226562500000e+04
-2.278029882812500000e+04
-2.277982031250000000e+04
-2.277971679687500000e+04
-2.277946093750000000e+04
-2.277919140625000000e+04
-2.277916210937500000e+04
-2.277917187500000000e+04
-2.277918945312500000e+04
-2.277967968750000000e+04
-2.277982421875000000e+04
-2.277997265625000000e+04
-2.278022265625000000e+04
-2.278040625000000000e+04
-2.278041992187500000e+04
-2.278041406250000000e+04
-2.278025781250000000e+04
-2.278041992187500000e+04
-2.278043750000000000e+04
-2.278046289062500000e+04
-2.278053515625000000e+04
-2.278057031250000000e+04
-2.278054296875000000e+04
-2.278050585937500000e+04
-2.278051367187500000e+04
-2.278055078125000000e+04
-2.278075585937500000e+04
-2.278120117187500000e+04
-2.278143945312500000e+04
-2.278142382812500000e+04
-2.278068164062500000e+04
-2.278061718750000000e+04
-2.278042578125000000e+04
-2.278009375000000000e+04
-2.278005273437500000e+04
-2.278005468750000000e+04
-2.278004492187500000e+04
-2.277806054687500000e+04
-2.277788671875000000e+04
-2.277784960937500000e+04
-2.277791601562500000e+04
-2.277840820312500000e+04
-2.277941796875000000e+04
-2.277948046875000000e+04
-2.277957226562500000e+04
-2.277962109375000000e+04
-2.277859960937500000e+04
-2.277854296875000000e+04
-2.277853125000000000e+04
-2.277856250000000000e+04
-2.277963281250000000e+04
-2.278055859375000000e+04
-2.278068164062500000e+04
-2.278133398437500000e+04
-2.278185156250000000e+04
-2.278180273437500000e+04
-2.278175390625000000e+04
-2.278148046875000000e+04
-2.278118945312500000e+04
-2.278096289062500000e+04
-2.278025195312500000e+04
-2.277890039062500000e+04
-2.277833007812500000e+04
-2.277770312500000000e+04
-2.277763867187500000e+04
-2.277731640625000000e+04
-2.277729492187500000e+04
-2.277728320312500000e+04
-2.277741796875000000e+04
-2.277786328125000000e+04
-2.277806250000000000e+04
-2.277803710937500000e+04
-2.277793945312500000e+04
-2.277777734375000000e+04
-2.277782812500000000e+04
-2.277795312500000000e+04
-2.277801562500000000e+04
-2.277815234375000000e+04
-2.277879687500000000e+04
-2.277887304687500000e+04
-2.277911914062500000e+04
-2.277916601562500000e+04
-2.277899023437500000e+04
-2.277871484375000000e+04
-2.277866406250000000e+04
-2.277863281250000000e+04
-2.277886914062500000e+04
-2.277892773437500000e+04
-2.277927343750000000e+04
-2.277999609375000000e+04
-2.277996679687500000e+04
-2.277985351562500000e+04
-2.277954882812500000e+04
-2.277808984375000000e+04
-2.277786914062500000e+04
-2.277784375000000000e+04
-2.277796093750000000e+04
-2.277858203125000000e+04
-2.277872070312500000e+04
-2.277901757812500000e+04
-2.278066406250000000e+04
-2.278108203125000000e+04
-2.278115039062500000e+04
-2.278063867187500000e+04
-2.277984960937500000e+04
-2.277983984375000000e+04
-2.277986718750000000e+04
-2.277993164062500000e+04
-2.277994726562500000e+04
-2.277986718750000000e+04
-2.277895117187500000e+04
-2.277886328125000000e+04
-2.277755664062500000e+04
-2.277740429687500000e+04
-2.277662890625000000e+04
-2.277657031250000000e+04
-2.277637109375000000e+04
-2.277618554687500000e+04
-2.277605273437500000e+04
-2.277595703125000000e+04
-2.277589257812500000e+04
-2.277695117187500000e+04
-2.277738671875000000e+04
-2.277752539062500000e+04
-2.277787890625000000e+04
-2.277797070312500000e+04
-2.277802734375000000e+04
-2.277774804687500000e+04
-2.277843750000000000e+04
-2.277884765625000000e+04
-2.277920703125000000e+04
-2.277956640625000000e+04
-2.277974023437500000e+04
-2.277974804687500000e+04
-2.277973046875000000e+04
-2.277970117187500000e+04
-2.277967187500000000e+04
-2.277957812500000000e+04
-2.277798046875000000e+04
-2.277744921875000000e+04
-2.277732617187500000e+04
-2.277660937500000000e+04
-2.277640234375000000e+04
-2.277613476562500000e+04
-2.277622656250000000e+04
-2.277753125000000000e+04
-2.278002539062500000e+04
-2.278111523437500000e+04
-2.278100390625000000e+04
-2.278091992187500000e+04
-2.278071679687500000e+04
-2.278059765625000000e+04
-2.278033398437500000e+04
-2.277977539062500000e+04
-2.277905664062500000e+04
-2.277895898437500000e+04
-2.277886132812500000e+04
-2.277869921875000000e+04
-2.277843750000000000e+04
-2.277838281250000000e+04
-2.277841992187500000e+04
-2.277841601562500000e+04
-2.277838671875000000e+04
-2.277840234375000000e+04
-2.277841406250000000e+04
-2.277855078125000000e+04
-2.277903125000000000e+04
-2.277935546875000000e+04
-2.277958789062500000e+04
-2.278010937500000000e+04
-2.278010937500000000e+04
-2.278010546875000000e+04
-2.277978125000000000e+04
-2.277971289062500000e+04
-2.277924218750000000e+04
-2.277907617187500000e+04
-2.277854687500000000e+04
-2.277853125000000000e+04
-2.277854101562500000e+04
-2.277850781250000000e+04
-2.277843164062500000e+04
-2.277861132812500000e+04
-2.277824218750000000e+04
-2.277806640625000000e+04
-2.277776562500000000e+04
-2.277672656250000000e+04
-2.277699218750000000e+04
-2.277741992187500000e+04
-2.277893750000000000e+04
-2.277920898437500000e+04
-2.277949804687500000e+04
-2.277953320312500000e+04
-2.277956640625000000e+04
-2.277952734375000000e+04
-2.277939257812500000e+04
-2.277934960937500000e+04
-2.277901367187500000e+04
-2.277890820312500000e+04
-2.277870507812500000e+04
-2.277855468750000000e+04
-2.277825976562500000e+04
-2.277797265625000000e+04
-2.277794531250000000e+04
-2.277786132812500000e+04
-2.277782812500000000e+04
-2.277780468750000000e+04
-2.277762109375000000e+04
-2.277754687500000000e+04
-2.277751367187500000e+04
-2.277751171875000000e+04
-2.277753515625000000e+04
-2.277755664062500000e+04
-2.277753125000000000e+04
-2.277749218750000000e+04
-2.277746679687500000e+04
-2.277728515625000000e+04
-2.277750976562500000e+04
-2.277756835937500000e+04
-2.277762500000000000e+04
-2.277768750000000000e+04
-2.277775195312500000e+04
-2.277825976562500000e+04
-2.277853125000000000e+04
-2.277865820312500000e+04
-2.277925390625000000e+04
-2.277928125000000000e+04
-2.277922070312500000e+04
-2.277862500000000000e+04
-2.277845703125000000e+04
-2.277809375000000000e+04
-2.277804492187500000e+04
-2.277794726562500000e+04
-2.277792968750000000e+04
-2.277794726562500000e+04
-2.277794335937500000e+04
-2.277793554687500000e+04
-2.277783984375000000e+04
-2.277774804687500000e+04
-2.277756835937500000e+04
-2.277734375000000000e+04
-2.277709179687500000e+04
-2.277664453125000000e+04
-2.277603515625000000e+04
-2.277575195312500000e+04
-2.277545507812500000e+04
-2.277572851562500000e+04
-2.277626757812500000e+04
-2.277647070312500000e+04
-2.277653125000000000e+04
-2.277678906250000000e+04
-2.277683984375000000e+04
-2.277691992187500000e+04
-2.277695703125000000e+04
-2.277703125000000000e+04
-2.277713867187500000e+04
-2.277731835937500000e+04
-2.277770507812500000e+04
-2.277930859375000000e+04
-2.277996484375000000e+04
-2.278050585937500000e+04
-2.278032812500000000e+04
-2.277975976562500000e+04
-2.277958007812500000e+04
-2.277898632812500000e+04
-2.277877343750000000e+04
-2.277711523437500000e+04
-2.277696289062500000e+04
-2.277703710937500000e+04
-2.277737695312500000e+04
-2.277759570312500000e+04
-2.277771484375000000e+04
-2.277830273437500000e+04
-2.277841406250000000e+04
-2.277879296875000000e+04
-2.277900195312500000e+04
-2.277869726562500000e+04
-2.277859179687500000e+04
-2.277809765625000000e+04
-2.277697656250000000e+04
-2.277640820312500000e+04
-2.277631835937500000e+04
-2.277624218750000000e+04
-2.277604882812500000e+04
-2.277563281250000000e+04
-2.277561132812500000e+04
-2.277549609375000000e+04
-2.277549414062500000e+04
-2.277549414062500000e+04
-2.277559375000000000e+04
-2.277547265625000000e+04
-2.277509375000000000e+04
-2.277501757812500000e+04
-2.277486914062500000e+04
-2.277452539062500000e+04
-2.277456445312500000e+04
-2.277503906250000000e+04
-2.277570898437500000e+04
-2.277675585937500000e+04
-2.277706835937500000e+04
-2.277675976562500000e+04
-2.277646875000000000e+04
-2.277575390625000000e+04
-2.277551953125000000e+04
-2.277549804687500000e+04
-2.277549414062500000e+04
-2.277549804687500000e+04
-2.277550195312500000e+04
-2.277582617187500000e+04
-2.277663671875000000e+04
-2.277705468750000000e+04
-2.277722656250000000e+04
-2.277713281250000000e+04
-2.277701562500000000e+04
-2.277676757812500000e+04
-2.277599414062500000e+04
-2.277583007812500000e+04
-2.277569335937500000e+04
-2.277555859375000000e+04
-2.277559765625000000e+04
-2.277568945312500000e+04
-2.277600585937500000e+04
-2.277613476562500000e+04
-2.277602929687500000e+04
-2.277477148437500000e+04
-2.277496289062500000e+04
-2.277545312500000000e+04
-2.277569531250000000e+04
-2.277608007812500000e+04
-2.277645312500000000e+04
-2.277656835937500000e+04
-2.277701562500000000e+04
-2.277648828125000000e+04
-2.277621875000000000e+04
-2.277606835937500000e+04
-2.277591210937500000e+04
-2.277576171875000000e+04
-2.277529492187500000e+04
-2.277480273437500000e+04
-2.277472070312500000e+04
-2.277629882812500000e+04
-2.277697656250000000e+04
-2.277720117187500000e+04
-2.277742578125000000e+04
-2.277786132812500000e+04
-2.277899414062500000e+04
-2.277909179687500000e+04
-2.277923632812500000e+04
-2.277932421875000000e+04
-2.277925781250000000e+04
-2.277863476562500000e+04
-2.277844335937500000e+04
-2.277814843750000000e+04
-2.277788671875000000e+04
-2.277780468750000000e+04
-2.277772851562500000e+04
-2.277737304687500000e+04
-2.277708007812500000e+04
-2.277582617187500000e+04
-2.277596289062500000e+04
-2.277621289062500000e+04
-2.277696875000000000e+04
-2.277764453125000000e+04
-2.277760742187500000e+04
-2.277709570312500000e+04
-2.277605273437500000e+04
-2.277377929687500000e+04
-2.277384375000000000e+04
-2.277394335937500000e+04
-2.277400390625000000e+04
-2.277422851562500000e+04
-2.277500585937500000e+04
-2.277521679687500000e+04
-2.277579296875000000e+04
-2.277610742187500000e+04
-2.277628125000000000e+04
-2.277636328125000000e+04
-2.277656445312500000e+04
-2.277656835937500000e+04
-2.277657226562500000e+04
-2.277627734375000000e+04
-2.277510937500000000e+04
-2.277476171875000000e+04
-2.277447460937500000e+04
-2.277408203125000000e+04
-2.277424414062500000e+04
-2.277428125000000000e+04
-2.277426953125000000e+04
-2.277387890625000000e+04
-2.277367968750000000e+04
-2.277337109375000000e+04
-2.277322070312500000e+04
-2.277347656250000000e+04
-2.277353125000000000e+04
-2.277358398437500000e+04
-2.277369921875000000e+04
-2.277399218750000000e+04
-2.277422070312500000e+04
-2.277436914062500000e+04
-2.277442968750000000e+04
-2.277445703125000000e+04
-2.277449023437500000e+04
-2.277454882812500000e+04
-2.277474804687500000e+04
-2.277473437500000000e+04
-2.277443945312500000e+04
-2.277435937500000000e+04
-2.277444335937500000e+04
-2.277460156250000000e+04
-2.277464648437500000e+04
-2.277480273437500000e+04
-2.277492187500000000e+04
-2.277493945312500000e+04
-2.277496875000000000e+04
-2.277502734375000000e+04
-2.277504101562500000e+04
-2.277510546875000000e+04
-2.277531445312500000e+04
-2.277529492187500000e+04
-2.277505664062500000e+04
-2.277474218750000000e+04
-2.277461718750000000e+04
-2.277447460937500000e+04
-2.277293164062500000e+04
-2.277245898437500000e+04
-2.277218945312500000e+04
-2.277207226562500000e+04
-2.277163281250000000e+04
-2.277102148437500000e+04
-2.277098437500000000e+04
-2.277085546875000000e+04
-2.277103710937500000e+04
-2.277127539062500000e+04
-2.277171679687500000e+04
-2.277231640625000000e+04
-2.277262304687500000e+04
-2.277279882812500000e+04
-2.277505468750000000e+04
-2.277547070312500000e+04
-2.277597656250000000e+04
-2.277640820312500000e+04
-2.277630468750000000e+04
-2.277616796875000000e+04
-2.277589648437500000e+04
-2.277567968750000000e+04
-2.277533593750000000e+04
-2.277498046875000000e+04
-2.277383984375000000e+04
-2.277338281250000000e+04
-2.277244726562500000e+04
-2.277218750000000000e+04
-2.277188671875000000e+04
-2.277191210937500000e+04
-2.277196093750000000e+04
-2.277301367187500000e+04
-2.277371093750000000e+04
-2.277417968750000000e+04
-2.277440234375000000e+04
-2.277565039062500000e+04
-2.277564843750000000e+04
-2.277550585937500000e+04
-2.277535937500000000e+04
-2.277525976562500000e+04
-2.277524023437500000e+04
-2.277528515625000000e+04
-2.277535156250000000e+04
-2.277554492187500000e+04
-2.277568750000000000e+04
-2.277579687500000000e+04
-2.277580664062500000e+04
-2.277539843750000000e+04
-2.277519921875000000e+04
-2.277455859375000000e+04
-2.277438085937500000e+04
-2.277446289062500000e+04
-2.277452343750000000e+04
-2.277467578125000000e+04
-2.277519921875000000e+04
-2.277562695312500000e+04
-2.277598828125000000e+04
-2.277599609375000000e+04
-2.277590625000000000e+04
-2.277512304687500000e+04
-2.277480273437500000e+04
-2.277402539062500000e+04
-2.277359765625000000e+04
-2.277347656250000000e+04
-2.277373437500000000e+04
-2.277428320312500000e+04
-2.277449609375000000e+04
-2.277417968750000000e+04
-2.277291796875000000e+04
-2.277277734375000000e+04
-2.277253125000000000e+04
-2.277290234375000000e+04
-2.277309375000000000e+04
-2.277455859375000000e+04
-2.277461718750000000e+04
-2.277467187500000000e+04
-2.277494531250000000e+04
-2.277499414062500000e+04
-2.277520703125000000e+04
-2.277534179687500000e+04
-2.277542382812500000e+04
-2.277534570312500000e+04
-2.277488476562500000e+04
-2.277460937500000000e+04
-2.277444921875000000e+04
-2.277441015625000000e+04
-2.277416210937500000e+04
-2.277406445312500000e+04
-2.277405664062500000e+04
-2.277406835937500000e+04
-2.277408984375000000e+04
-2.277448632812500000e+04
-2.277454492187500000e+04
-2.277416210937500000e+04
-2.277379296875000000e+04
-2.277330468750000000e+04
-2.277326562500000000e+04
-2.277323242187500000e+04
-2.277325000000000000e+04
-2.277491015625000000e+04
-2.277516210937500000e+04
-2.277527148437500000e+04
-2.277532812500000000e+04
-2.277535546875000000e+04
-2.277546093750000000e+04
-2.277548242187500000e+04
-2.277540625000000000e+04
-2.277531250000000000e+04
-2.277521679687500000e+04
-2.277489843750000000e+04
-2.277466601562500000e+04
-2.277453906250000000e+04
-2.277447460937500000e+04
-2.277407226562500000e+04
-2.277349218750000000e+04
-2.277341601562500000e+04
-2.277334570312500000e+04
-2.277258984375000000e+04
-2.277237695312500000e+04
-2.277232617187500000e+04
-2.277391015625000000e+04
-2.277404492187500000e+04
-2.277418164062500000e+04
-2.277503906250000000e+04
-2.277530859375000000e+04
-2.277538281250000000e+04
-2.277558984375000000e+04
-2.277559375000000000e+04
-2.277553125000000000e+04
-2.277510351562500000e+04
-2.277438281250000000e+04
-2.277428320312500000e+04
-2.277474414062500000e+04
-2.277499804687500000e+04
-2.277507421875000000e+04
-2.277522070312500000e+04
-2.277524804687500000e+04
-2.277480468750000000e+04
-2.277465039062500000e+04
-2.277458007812500000e+04
-2.277427539062500000e+04
-2.277413281250000000e+04
-2.277392968750000000e+04
-2.277365625000000000e+04
-2.277301171875000000e+04
-2.277274023437500000e+04
-2.277242773437500000e+04
-2.277053710937500000e+04
-2.277012500000000000e+04
-2.277029492187500000e+04
-2.277088085937500000e+04
-2.277630664062500000e+04
-2.277681250000000000e+04
-2.277735546875000000e+04
-2.277759179687500000e+04
-2.277766796875000000e+04
-2.277772851562500000e+04
-2.277779492187500000e+04
-2.277780664062500000e+04
-2.277780078125000000e+04
-2.277777734375000000e+04
-2.277774609375000000e+04
-2.277770312500000000e+04
-2.277605273437500000e+04
-2.277482617187500000e+04
-2.277464453125000000e+04
-2.277447265625000000e+04
-2.277397070312500000e+04
-2.277353515625000000e+04
-2.277303125000000000e+04
-2.277324804687500000e+04
-2.277370898437500000e+04
-2.277374804687500000e+04
-2.277321289062500000e+04
-2.277296289062500000e+04
-2.277176953125000000e+04
-2.277147851562500000e+04
-2.277147265625000000e+04
-2.277151367187500000e+04
-2.277161914062500000e+04
-2.277168359375000000e+04
-2.277189648437500000e+04
-2.277232812500000000e+04
-2.277249218750000000e+04
-2.277250195312500000e+04
-2.277241601562500000e+04
-2.277237890625000000e+04
-2.277224218750000000e+04
-2.277177343750000000e+04
-2.277147851562500000e+04
-2.277067773437500000e+04
-2.277022851562500000e+04
-2.276941601562500000e+04
-2.276970312500000000e+04
-2.277224414062500000e+04
-2.277250195312500000e+04
-2.277344921875000000e+04
-2.277433593750000000e+04
-2.277500195312500000e+04
-2.277510546875000000e+04
-2.277508984375000000e+04
-2.277508984375000000e+04
-2.277509765625000000e+04
-2.277521484375000000e+04
-2.277529101562500000e+04
-2.277528125000000000e+04
-2.277516406250000000e+04
-2.277514843750000000e+04
-2.277516601562500000e+04
-2.277519531250000000e+04
-2.277526562500000000e+04
-2.277507226562500000e+04
-2.277403125000000000e+04
-2.277300390625000000e+04
-2.277251171875000000e+04
-2.277254492187500000e+04
-2.277259179687500000e+04
-2.277306640625000000e+04
-2.277312890625000000e+04
-2.277302734375000000e+04
-2.277294726562500000e+04
-2.277131250000000000e+04
-2.277133789062500000e+04
-2.277141796875000000e+04
-2.277168164062500000e+04
-2.277176367187500000e+04
-2.277178515625000000e+04
-2.277148632812500000e+04
-2.277125000000000000e+04
-2.277095507812500000e+04
-2.277061328125000000e+04
-2.276973242187500000e+04
-2.276924414062500000e+04
-2.276916406250000000e+04
-2.276997460937500000e+04
-2.277008593750000000e+04
-2.277069726562500000e+04
-2.277194531250000000e+04
-2.277208593750000000e+04
-2.277236132812500000e+04
-2.277276953125000000e+04
-2.277389648437500000e+04
-2.277397656250000000e+04
-2.277404101562500000e+04
-2.277307617187500000e+04
-2.277159960937500000e+04
-2.277104687500000000e+04
-2.277075000000000000e+04
-2.277028125000000000e+04
-2.277029296875000000e+04
-2.277063085937500000e+04
-2.277062304687500000e+04
-2.277059960937500000e+04
-2.277056054687500000e+04
-2.277034960937500000e+04
-2.277013476562500000e+04
-2.276928710937500000e+04
-2.276869531250000000e+04
-2.276842773437500000e+04
-2.276822265625000000e+04
-2.276802539062500000e+04
-2.276798046875000000e+04
-2.276798046875000000e+04
-2.276800390625000000e+04
-2.276809570312500000e+04
-2.276825195312500000e+04
-2.276857031250000000e+04
-2.276908398437500000e+04
-2.276982031250000000e+04
-2.277027148437500000e+04
-2.277047460937500000e+04
-2.277059765625000000e+04
-2.277065429687500000e+04
-2.277071289062500000e+04
-2.277161328125000000e+04
-2.277186718750000000e+04
-2.277196093750000000e+04
-2.277207617187500000e+04
-2.277206250000000000e+04
-2.277197460937500000e+04
-2.277189648437500000e+04
-2.277184375000000000e+04
-2.277181445312500000e+04
-2.277175000000000000e+04
-2.277173632812500000e+04
-2.277175976562500000e+04
-2.277181445312500000e+04
-2.277192773437500000e+04
-2.277234570312500000e+04
-2.277272656250000000e+04
-2.277315039062500000e+04
-2.277332421875000000e+04
-2.277363867187500000e+04
-2.277376367187500000e+04
-2.277370507812500000e+04
-2.277366796875000000e+04
-2.277232226562500000e+04
-2.277221484375000000e+04
-2.277213671875000000e+04
-2.277264453125000000e+04
-2.277333789062500000e+04
-2.277360156250000000e+04
-2.277355273437500000e+04
-2.277301953125000000e+04
-2.277231640625000000e+04
-2.277192382812500000e+04
-2.277180273437500000e+04
-2.277139453125000000e+04
-2.277130664062500000e+04
-2.277096289062500000e+04
-2.277052343750000000e+04
-2.277042578125000000e+04
-2.277037500000000000e+04
-2.277090625000000000e+04
-2.277117187500000000e+04
-2.277149609375000000e+04
-2.277153710937500000e+04
-2.277159375000000000e+04
-2.277145703125000000e+04
-2.277143359375000000e+04
-2.277146679687500000e+04
-2.277168750000000000e+04
-2.277194335937500000e+04
-2.277203515625000000e+04
-2.277213085937500000e+04
-2.277242773437500000e+04
-2.277251953125000000e+04
