-1.266633886718750000e+04
-1.266268554687500000e+04
-1.266159960937500000e+04
-1.265861621093750000e+04
-1.265506835937500000e+04
-1.265096386718750000e+04
-1.265200488281250000e+04
-1.265292578125000000e+04
-1.265308886718750000e+04
-1.265327539062500000e+04
-1.265325683593750000e+04
-1.265323242187500000e+04
-1.265297070312500000e+04
-1.265255468750000000e+04
-1.265238281250000000e+04
-1.265226464843750000e+04
-1.265340917968750000e+04
-1.265352734375000000e+04
-1.265362890625000000e+04
-1.265327929687500000e+04
-1.265308984375000000e+04
-1.265287890625000000e+04
-1.265254687500000000e+04
-1.265232910156250000e+04
-1.265222363281250000e+04
-1.265212207031250000e+04
-1.265202636718750000e+04
-1.265194238281250000e+04
-1.265166210937500000e+04
-1.265206835937500000e+04
-1.265244531250000000e+04
-1.265257128906250000e+04
-1.265296679687500000e+04
-1.265342871093750000e+04
-1.265346582031250000e+04
-1.265372363281250000e+04
-1.265379199218750000e+04
-1.265385449218750000e+04
-1.265396875000000000e+04
-1.265403125000000000e+04
-1.265404785156250000e+04
-1.265410156250000000e+04
-1.265417675781250000e+04
-1.265426757812500000e+04
-1.265444042968750000e+04
-1.265448339843750000e+04
-1.265456933593750000e+04
-1.265468066406250000e+04
-1.265475781250000000e+04
-1.265477050781250000e+04
-1.265468847656250000e+04
-1.265457519531250000e+04
-1.265422363281250000e+04
-1.265232617187500000e+04
-1.265163671875000000e+04
-1.265106542968750000e+04
-1.265054687500000000e+04
-1.265078808593750000e+04
-1.265117089843750000e+04
-1.265166308593750000e+04
-1.265208007812500000e+04
-1.265214160156250000e+04
-1.265225097656250000e+04
-1.265238769531250000e+04
-1.265258886718750000e+04
-1.265267187500000000e+04
-1.265281347656250000e+04
-1.265313769531250000e+04
-1.265373632812500000e+04
-1.265448535156250000e+04
-1.265462402343750000e+04
-1.265466601562500000e+04
-1.265466503906250000e+04
-1.265461914062500000e+04
-1.265439355468750000e+04
-1.265434667968750000e+04
-1.265379492187500000e+04
-1.265367285156250000e+04
-1.265282812500000000e+04
-1.265282128906250000e+04
-1.265281933593750000e+04
-1.265281347656250000e+04
-1.265282128906250000e+04
-1.265326171875000000e+04
-1.265354492187500000e+04
-1.265442187500000000e+04
-1.265452343750000000e+04
-1.265472167968750000e+04
-1.265519921875000000e+04
-1.265523242187500000e+04
-1.265532910156250000e+04
-1.265538769531250000e+04
-1.265530078125000000e+04
-1.265526757812500000e+04
-1.265522656250000000e+04
-1.265504687500000000e+04
-1.265442968750000000e+04
-1.265432714843750000e+04
-1.265422460937500000e+04
-1.265401953125000000e+04
-1.265381542968750000e+04
-1.265344531250000000e+04
-1.265329394531250000e+04
-1.265303906250000000e+04
-1.265310937500000000e+04
-1.265320898437500000e+04
-1.265355664062500000e+04
-1.265446484375000000e+04
-1.265452636718750000e+04
-1.265462695312500000e+04
-1.265466699218750000e+04
-1.265473828125000000e+04
-1.265474511718750000e+04
-1.265464746093750000e+04
-1.265427734375000000e+04
-1.265421484375000000e+04
-1.265415332031250000e+04
-1.265398535156250000e+04
-1.265359082031250000e+04
-1.265355273437500000e+04
-1.265335839843750000e+04
-1.265327343750000000e+04
-1.265269433593750000e+04
-1.265239453125000000e+04
-1.265230468750000000e+04
-1.265215429687500000e+04
-1.265212109375000000e+04
-1.265209179687500000e+04
-1.265217578125000000e+04
-1.265220703125000000e+04
-1.265253515625000000e+04
-1.265255371093750000e+04
-1.265258886718750000e+04
-1.265258886718750000e+04
-1.265257519531250000e+04
-1.265241992187500000e+04
-1.265232324218750000e+04
-1.265238378906250000e+04
-1.265244531250000000e+04
-1.265270800781250000e+04
-1.265307812500000000e+04
-1.265341406250000000e+04
-1.265342089843750000e+04
-1.265342675781250000e+04
-1.265343066406250000e+04
-1.265340722656250000e+04
-1.265334570312500000e+04
-1.265325000000000000e+04
-1.265321777343750000e+04
-1.265317480468750000e+04
-1.265308691406250000e+04
-1.265310839843750000e+04
-1.265328906250000000e+04
-1.265335742187500000e+04
-1.265353027343750000e+04
-1.265356347656250000e+04
-1.265357519531250000e+04
-1.265352441406250000e+04
-1.265345996093750000e+04
-1.265338378906250000e+04
-1.265331542968750000e+04
-1.265325683593750000e+04
-1.265325488281250000e+04
-1.265343261718750000e+04
-1.265340527343750000e+04
-1.265311132812500000e+04
-1.265291503906250000e+04
-1.265273046875000000e+04
-1.265279296875000000e+04
-1.265304199218750000e+04
-1.265370605468750000e+04
-1.265370800781250000e+04
-1.265366894531250000e+04
-1.265355664062500000e+04
-1.265340625000000000e+04
-1.265335156250000000e+04
-1.265287500000000000e+04
-1.265284667968750000e+04
-1.265280566406250000e+04
-1.265248242187500000e+04
-1.265240332031250000e+04
-1.265226464843750000e+04
-1.265186816406250000e+04
-1.265200585937500000e+04
-1.265211328125000000e+04
-1.265254101562500000e+04
-1.265283593750000000e+04
-1.265329003906250000e+04
-1.265321093750000000e+04
-1.265254687500000000e+04
-1.265105468750000000e+04
-1.265100976562500000e+04
-1.265104101562500000e+04
-1.265108496093750000e+04
-1.265157519531250000e+04
-1.265181933593750000e+04
-1.265240429687500000e+04
-1.265310351562500000e+04
-1.265310839843750000e+04
-1.265305371093750000e+04
-1.265251269531250000e+04
-1.265223046875000000e+04
-1.265198437500000000e+04
-1.265181738281250000e+04
-1.265180566406250000e+04
-1.265196191406250000e+04
-1.265235937500000000e+04
-1.265215722656250000e+04
-1.265197070312500000e+04
-1.265191992187500000e+04
-1.265152929687500000e+04
-1.265167871093750000e+04
-1.265176660156250000e+04
-1.265181640625000000e+04
-1.265235253906250000e+04
-1.265247265625000000e+04
-1.265289550781250000e+04
-1.265290917968750000e+04
-1.265284765625000000e+04
-1.265269531250000000e+04
-1.265246582031250000e+04
-1.265240039062500000e+04
-1.265233203125000000e+04
-1.265198339843750000e+04
-1.265169628906250000e+04
-1.265158203125000000e+04
-1.265154296875000000e+04
-1.265173242187500000e+04
-1.265187792968750000e+04
-1.265197460937500000e+04
-1.265229101562500000e+04
-1.265200292968750000e+04
-1.265194726562500000e+04
-1.265230761718750000e+04
-1.265243847656250000e+04
-1.265250781250000000e+04
-1.265307617187500000e+04
-1.265311816406250000e+04
-1.265328417968750000e+04
-1.265323632812500000e+04
-1.265320800781250000e+04
-1.265310546875000000e+04
-1.265296289062500000e+04
-1.265277832031250000e+04
-1.265232617187500000e+04
-1.265331640625000000e+04
-1.265341308593750000e+04
-1.265396582031250000e+04
-1.265396484375000000e+04
-1.265395703125000000e+04
-1.265394238281250000e+04
-1.265365820312500000e+04
-1.265352929687500000e+04
-1.265324121093750000e+04
-1.265316406250000000e+04
-1.265292968750000000e+04
-1.265249316406250000e+04
-1.265226855468750000e+04
-1.265222070312500000e+04
-1.265217382812500000e+04
-1.265193554687500000e+04
-1.265192089843750000e+04
-1.265191601562500000e+04
-1.265191699218750000e+04
-1.265196386718750000e+04
-1.265203808593750000e+04
-1.265205664062500000e+04
-1.265225585937500000e+04
-1.265232226562500000e+04
-1.265233593750000000e+04
-1.265234863281250000e+04
-1.265244628906250000e+04
-1.265254882812500000e+04
-1.265282226562500000e+04
-1.265301269531250000e+04
-1.265320019531250000e+04
-1.265321484375000000e+04
-1.265305175781250000e+04
-1.265222753906250000e+04
-1.265077734375000000e+04
-1.265068945312500000e+04
-1.265067382812500000e+04
-1.265072363281250000e+04
-1.265086523437500000e+04
-1.265110644531250000e+04
-1.265138476562500000e+04
-1.265154394531250000e+04
-1.265160644531250000e+04
-1.265265136718750000e+04
-1.265259082031250000e+04
-1.265220507812500000e+04
-1.265213183593750000e+04
-1.265172363281250000e+04
-1.265099804687500000e+04
-1.265094628906250000e+04
-1.265087890625000000e+04
-1.265082910156250000e+04
-1.265113183593750000e+04
-1.265116113281250000e+04
-1.265117675781250000e+04
-1.265120117187500000e+04
-1.265119335937500000e+04
-1.265115527343750000e+04
-1.265115722656250000e+04
-1.265121777343750000e+04
-1.265174121093750000e+04
-1.265184570312500000e+04
-1.265189257812500000e+04
-1.265204199218750000e+04
-1.265210253906250000e+04
-1.265210546875000000e+04
-1.265200000000000000e+04
-1.265135253906250000e+04
-1.265102832031250000e+04
-1.265092382812500000e+04
-1.265094824218750000e+04
-1.265138281250000000e+04
-1.265147558593750000e+04
-1.265157910156250000e+04
-1.265226953125000000e+04
-1.265263671875000000e+04
-1.265245312500000000e+04
-1.265187207031250000e+04
-1.265149609375000000e+04
-1.265036621093750000e+04
-1.265039257812500000e+04
-1.265048242187500000e+04
-1.265054296875000000e+04
-1.265069042968750000e+04
-1.265158691406250000e+04
-1.265166015625000000e+04
-1.265169335937500000e+04
-1.265167480468750000e+04
-1.265175585937500000e+04
-1.265187597656250000e+04
-1.265190136718750000e+04
-1.265193847656250000e+04
-1.265190429687500000e+04
-1.265188085937500000e+04
-1.265164648437500000e+04
-1.265022070312500000e+04
-1.264991308593750000e+04
-1.265009179687500000e+04
-1.265058300781250000e+04
-1.265274414062500000e+04
-1.265327734375000000e+04
-1.265302832031250000e+04
-1.265293066406250000e+04
-1.265266308593750000e+04
-1.265262402343750000e+04
-1.265256152343750000e+04
-1.265244531250000000e+04
-1.265244433593750000e+04
-1.265243750000000000e+04
-1.265229296875000000e+04
-1.265224511718750000e+04
-1.265231933593750000e+04
-1.265233203125000000e+04
-1.265236621093750000e+04
-1.265238281250000000e+04
-1.265240136718750000e+04
-1.265206640625000000e+04
-1.265201074218750000e+04
-1.265124609375000000e+04
-1.265125390625000000e+04
-1.265121875000000000e+04
-1.265121191406250000e+04
-1.265118164062500000e+04
-1.265114746093750000e+04
-1.265113574218750000e+04
-1.265114257812500000e+04
-1.265200781250000000e+04
-1.265202539062500000e+04
-1.265186523437500000e+04
-1.265179882812500000e+04
-1.265158984375000000e+04
-1.265151367187500000e+04
-1.265097949218750000e+04
-1.265098437500000000e+04
-1.265086718750000000e+04
-1.265079589843750000e+04
-1.265076562500000000e+04
-1.265079882812500000e+04
-1.265093261718750000e+04
-1.265107128906250000e+04
-1.265112109375000000e+04
-1.265117480468750000e+04
-1.265122460937500000e+04
-1.265131542968750000e+04
-1.265094140625000000e+04
-1.265064257812500000e+04
-1.265059277343750000e+04
-1.265041503906250000e+04
-1.265041406250000000e+04
-1.265053613281250000e+04
-1.265066503906250000e+04
-1.265106933593750000e+04
-1.265140820312500000e+04
-1.265137011718750000e+04
-1.265136035156250000e+04
-1.265135839843750000e+04
-1.265136914062500000e+04
-1.265137890625000000e+04
-1.265140917968750000e+04
-1.265150878906250000e+04
-1.265173632812500000e+04
-1.265177832031250000e+04
-1.265181835937500000e+04
-1.265190234375000000e+04
-1.265208593750000000e+04
-1.265214550781250000e+04
-1.265226562500000000e+04
-1.265224902343750000e+04
-1.265210839843750000e+04
-1.265207617187500000e+04
-1.265207226562500000e+04
-1.265208203125000000e+04
-1.265225878906250000e+04
-1.265238867187500000e+04
-1.265246875000000000e+04
-1.265219921875000000e+04
-1.265212207031250000e+04
-1.265203515625000000e+04
-1.265105175781250000e+04
-1.265090527343750000e+04
-1.265000781250000000e+04
-1.264973437500000000e+04
-1.264895703125000000e+04
-1.264914257812500000e+04
-1.264948339843750000e+04
-1.264990917968750000e+04
-1.265109765625000000e+04
-1.265152636718750000e+04
-1.265151953125000000e+04
-1.265151074218750000e+04
-1.265150292968750000e+04
-1.265144042968750000e+04
-1.265131542968750000e+04
-1.265116699218750000e+04
-1.265031445312500000e+04
-1.265000000000000000e+04
-1.264943554687500000e+04
-1.264932128906250000e+04
-1.264870312500000000e+04
-1.264854296875000000e+04
-1.264833203125000000e+04
-1.264830468750000000e+04
-1.264845117187500000e+04
-1.264858984375000000e+04
-1.264895214843750000e+04
-1.264927050781250000e+04
-1.264987402343750000e+04
-1.265042675781250000e+04
-1.265047167968750000e+04
-1.265062695312500000e+04
-1.265066894531250000e+04
-1.265070019531250000e+04
-1.265081835937500000e+04
-1.265085644531250000e+04
-1.265085644531250000e+04
-1.265084765625000000e+04
-1.265081152343750000e+04
-1.265073730468750000e+04
-1.265064746093750000e+04
-1.265062500000000000e+04
-1.265062109375000000e+04
-1.265103515625000000e+04
-1.265116503906250000e+04
-1.265117187500000000e+04
-1.265117089843750000e+04
-1.265116992187500000e+04
-1.265115332031250000e+04
-1.265084277343750000e+04
-1.265049707031250000e+04
-1.265027636718750000e+04
-1.265115625000000000e+04
-1.265156542968750000e+04
-1.265157421875000000e+04
-1.265126367187500000e+04
-1.265114355468750000e+04
-1.265089941406250000e+04
-1.265086425781250000e+04
-1.265078222656250000e+04
-1.265080957031250000e+04
-1.265086718750000000e+04
-1.265093847656250000e+04
-1.265097851562500000e+04
-1.265115136718750000e+04
-1.265124414062500000e+04
-1.265136718750000000e+04
-1.265146484375000000e+04
-1.265153417968750000e+04
-1.265156347656250000e+04
-1.265146093750000000e+04
-1.265131445312500000e+04
-1.265048242187500000e+04
-1.264975000000000000e+04
-1.264912109375000000e+04
-1.264894335937500000e+04
-1.264889746093750000e+04
-1.264879687500000000e+04
-1.264884472656250000e+04
-1.264910839843750000e+04
-1.264935937500000000e+04
-1.264972265625000000e+04
-1.264999511718750000e+04
-1.265024609375000000e+04
-1.265052050781250000e+04
-1.265079296875000000e+04
-1.265078710937500000e+04
-1.265053515625000000e+04
-1.265046582031250000e+04
-1.265032226562500000e+04
-1.265028906250000000e+04
-1.265020214843750000e+04
-1.265017285156250000e+04
-1.265010839843750000e+04
-1.265016406250000000e+04
-1.265018554687500000e+04
-1.265018847656250000e+04
-1.265017187500000000e+04
-1.265015722656250000e+04
-1.264998632812500000e+04
-1.264993359375000000e+04
-1.264966601562500000e+04
-1.264934277343750000e+04
-1.264871484375000000e+04
-1.264868164062500000e+04
-1.264863574218750000e+04
-1.264903906250000000e+04
-1.264943066406250000e+04
-1.264950488281250000e+04
-1.264957519531250000e+04
-1.264976855468750000e+04
-1.264992382812500000e+04
-1.264988964843750000e+04
-1.264957617187500000e+04
-1.264950195312500000e+04
-1.264942871093750000e+04
-1.264791406250000000e+04
-1.264773632812500000e+04
-1.264760839843750000e+04
-1.264762597656250000e+04
-1.264769335937500000e+04
-1.264852148437500000e+04
-1.264862597656250000e+04
-1.264912792968750000e+04
-1.264945312500000000e+04
-1.264978027343750000e+04
-1.265047460937500000e+04
-1.265041796875000000e+04
-1.265034863281250000e+04
-1.265000000000000000e+04
-1.264983203125000000e+04
-1.264988281250000000e+04
-1.264992578125000000e+04
-1.265004785156250000e+04
-1.265012890625000000e+04
-1.265133007812500000e+04
-1.265211035156250000e+04
-1.265205566406250000e+04
-1.265164550781250000e+04
-1.265119531250000000e+04
-1.265097949218750000e+04
-1.265073437500000000e+04
-1.265078808593750000e+04
-1.265094433593750000e+04
-1.265111914062500000e+04
-1.265168652343750000e+04
-1.265167187500000000e+04
-1.265159863281250000e+04
-1.265109570312500000e+04
-1.265044824218750000e+04
-1.264988281250000000e+04
-1.264877246093750000e+04
-1.264898828125000000e+04
-1.264922363281250000e+04
-1.264931933593750000e+04
-1.264944531250000000e+04
-1.264956250000000000e+04
-1.264959863281250000e+04
-1.264987304687500000e+04
-1.265016992187500000e+04
-1.265021875000000000e+04
-1.265023828125000000e+04
-1.265024902343750000e+04
-1.265025683593750000e+04
-1.265024902343750000e+04
-1.265014941406250000e+04
-1.265010546875000000e+04
-1.264918261718750000e+04
-1.264908496093750000e+04
-1.264906250000000000e+04
-1.264904199218750000e+04
-1.264902441406250000e+04
-1.264902343750000000e+04
-1.264902636718750000e+04
-1.264901855468750000e+04
-1.264899609375000000e+04
-1.264895214843750000e+04
-1.264871191406250000e+04
-1.264863183593750000e+04
-1.264850390625000000e+04
-1.264837988281250000e+04
-1.264833593750000000e+04
-1.264829687500000000e+04
-1.264812988281250000e+04
-1.264804687500000000e+04
-1.264843164062500000e+04
-1.264853027343750000e+04
-1.264857910156250000e+04
-1.264865917968750000e+04
-1.264875878906250000e+04
-1.264920019531250000e+04
-1.264932617187500000e+04
-1.264958691406250000e+04
-1.265087792968750000e+04
-1.265110156250000000e+04
-1.265117285156250000e+04
-1.265119726562500000e+04
-1.265123437500000000e+04
-1.265093066406250000e+04
-1.265078125000000000e+04
-1.265024902343750000e+04
-1.264988476562500000e+04
-1.264963867187500000e+04
-1.264949023437500000e+04
-1.264897753906250000e+04
-1.264889941406250000e+04
-1.264879199218750000e+04
-1.264845703125000000e+04
-1.264864355468750000e+04
-1.264881542968750000e+04
-1.264901171875000000e+04
-1.264952050781250000e+04
-1.264927343750000000e+04
-1.264910058593750000e+04
-1.264817187500000000e+04
-1.264777050781250000e+04
-1.264790917968750000e+04
-1.264845507812500000e+04
-1.264967968750000000e+04
-1.265076660156250000e+04
-1.265087207031250000e+04
-1.265095703125000000e+04
-1.265108496093750000e+04
-1.265111230468750000e+04
-1.265068750000000000e+04
-1.265033593750000000e+04
-1.265021679687500000e+04
-1.265016503906250000e+04
-1.265012207031250000e+04
-1.265005175781250000e+04
-1.264993945312500000e+04
-1.264995117187500000e+04
-1.264990820312500000e+04
-1.264977539062500000e+04
-1.264954296875000000e+04
-1.264945019531250000e+04
-1.264944726562500000e+04
-1.264951464843750000e+04
-1.264981250000000000e+04
-1.264988964843750000e+04
-1.265034960937500000e+04
-1.265093847656250000e+04
-1.265100097656250000e+04
-1.265113964843750000e+04
-1.265114550781250000e+04
-1.265094238281250000e+04
-1.265079687500000000e+04
-1.265071679687500000e+04
-1.265069042968750000e+04
-1.265066894531250000e+04
-1.265057714843750000e+04
-1.265057519531250000e+04
-1.265058203125000000e+04
-1.265059082031250000e+04
-1.265066210937500000e+04
-1.265073730468750000e+04
-1.265070019531250000e+04
-1.265034863281250000e+04
-1.264905371093750000e+04
-1.264841015625000000e+04
-1.264782128906250000e+04
-1.264810839843750000e+04
-1.264828320312500000e+04
-1.264838378906250000e+04
-1.264949414062500000e+04
-1.264970214843750000e+04
-1.264997656250000000e+04
-1.265025390625000000e+04
-1.265021093750000000e+04
-1.265011035156250000e+04
-1.264990039062500000e+04
-1.264972363281250000e+04
-1.264944335937500000e+04
-1.264915136718750000e+04
-1.264841503906250000e+04
-1.264827539062500000e+04
-1.264853906250000000e+04
-1.264874511718750000e+04
-1.264920703125000000e+04
-1.264955664062500000e+04
-1.264968066406250000e+04
-1.265058789062500000e+04
-1.265094140625000000e+04
-1.265115429687500000e+04
-1.265124804687500000e+04
-1.265161035156250000e+04
-1.265154296875000000e+04
-1.265129589843750000e+04
-1.265104492187500000e+04
-1.265076953125000000e+04
-1.265059472656250000e+04
-1.265038085937500000e+04
-1.265027050781250000e+04
-1.265017675781250000e+04
-1.265022167968750000e+04
-1.265034082031250000e+04
-1.265078515625000000e+04
-1.265087402343750000e+04
-1.265066992187500000e+04
-1.264936328125000000e+04
-1.264863183593750000e+04
-1.264767187500000000e+04
-1.264760253906250000e+04
-1.264754199218750000e+04
-1.264782226562500000e+04
-1.264844433593750000e+04
-1.264979101562500000e+04
-1.265002832031250000e+04
-1.265071191406250000e+04
-1.265180761718750000e+04
-1.265192382812500000e+04
-1.265174804687500000e+04
-1.265117578125000000e+04
-1.265016015625000000e+04
-1.264918261718750000e+04
-1.264846191406250000e+04
-1.264848242187500000e+04
-1.264912988281250000e+04
-1.265072656250000000e+04
-1.265083789062500000e+04
-1.265073632812500000e+04
-1.265015039062500000e+04
-1.264997753906250000e+04
-1.264919335937500000e+04
-1.264919335937500000e+04
-1.264920117187500000e+04
-1.264923046875000000e+04
-1.264922753906250000e+04
-1.264922363281250000e+04
-1.264921972656250000e+04
-1.264934960937500000e+04
-1.264939746093750000e+04
-1.264945214843750000e+04
-1.264931933593750000e+04
-1.264912304687500000e+04
-1.264904492187500000e+04
-1.264791113281250000e+04
-1.264752441406250000e+04
-1.264739160156250000e+04
-1.264739160156250000e+04
-1.264739843750000000e+04
-1.264808007812500000e+04
-1.264850195312500000e+04
-1.264991015625000000e+04
-1.265018847656250000e+04
-1.265019531250000000e+04
-1.265017089843750000e+04
-1.265014257812500000e+04
-1.264995214843750000e+04
-1.264932128906250000e+04
-1.264920312500000000e+04
-1.264911328125000000e+04
-1.264904492187500000e+04
-1.264901367187500000e+04
-1.264889355468750000e+04
-1.264888281250000000e+04
-1.264920019531250000e+04
-1.264955468750000000e+04
-1.264986718750000000e+04
-1.265060156250000000e+04
-1.265087500000000000e+04
-1.265086914062500000e+04
-1.265079003906250000e+04
-1.264846679687500000e+04
-1.264828222656250000e+04
-1.264832714843750000e+04
-1.264838183593750000e+04
-1.264989160156250000e+04
-1.265002929687500000e+04
-1.265001953125000000e+04
-1.264830078125000000e+04
-1.264818847656250000e+04
-1.264807226562500000e+04
-1.264726171875000000e+04
-1.264693066406250000e+04
-1.264683007812500000e+04
-1.264644042968750000e+04
-1.264641406250000000e+04
-1.264642187500000000e+04
-1.264687988281250000e+04
-1.264817089843750000e+04
-1.264879199218750000e+04
-1.264934082031250000e+04
-1.264937402343750000e+04
-1.264936328125000000e+04
-1.264929101562500000e+04
-1.264925195312500000e+04
-1.264868652343750000e+04
-1.264857910156250000e+04
-1.264853125000000000e+04
-1.264833105468750000e+04
-1.264828417968750000e+04
-1.264851953125000000e+04
-1.264881542968750000e+04
-1.264924218750000000e+04
-1.264932324218750000e+04
-1.264940039062500000e+04
-1.264957617187500000e+04
-1.264958300781250000e+04
-1.264957031250000000e+04
-1.264955078125000000e+04
-1.264922851562500000e+04
-1.264916796875000000e+04
-1.264907421875000000e+04
-1.264901660156250000e+04
-1.264898632812500000e+04
-1.264895800781250000e+04
-1.264890917968750000e+04
-1.264888671875000000e+04
-1.264887500000000000e+04
-1.264886523437500000e+04
-1.264885644531250000e+04
-1.264885546875000000e+04
-1.264937500000000000e+04
-1.264979882812500000e+04
-1.264985351562500000e+04
-1.264990527343750000e+04
-1.265004492187500000e+04
-1.265015527343750000e+04
-1.265033203125000000e+04
-1.265029589843750000e+04
-1.264985742187500000e+04
-1.264974121093750000e+04
-1.264752539062500000e+04
-1.264714257812500000e+04
-1.264612011718750000e+04
-1.264621582031250000e+04
-1.264686816406250000e+04
-1.264705273437500000e+04
-1.264746972656250000e+04
-1.264768945312500000e+04
-1.264839257812500000e+04
-1.264993164062500000e+04
-1.265081738281250000e+04
-1.265092578125000000e+04
-1.265017382812500000e+04
-1.264979980468750000e+04
-1.264907617187500000e+04
-1.264822265625000000e+04
-1.264793066406250000e+04
-1.264747265625000000e+04
-1.264735937500000000e+04
-1.264773828125000000e+04
-1.264814941406250000e+04
-1.264930957031250000e+04
-1.264940917968750000e+04
-1.264980859375000000e+04
-1.265020605468750000e+04
-1.265033105468750000e+04
-1.264962011718750000e+04
-1.264916699218750000e+04
-1.264900781250000000e+04
-1.264867675781250000e+04
-1.264743945312500000e+04
-1.264672363281250000e+04
-1.264659667968750000e+04
-1.264640625000000000e+04
-1.264642382812500000e+04
-1.264652343750000000e+04
-1.264660058593750000e+04
-1.264687402343750000e+04
-1.264725390625000000e+04
-1.264830664062500000e+04
-1.264768750000000000e+04
-1.264599609375000000e+04
-1.264592968750000000e+04
-1.264587597656250000e+04
-1.264595214843750000e+04
-1.264677636718750000e+04
-1.264711621093750000e+04
-1.264729785156250000e+04
-1.264983496093750000e+04
-1.264981640625000000e+04
-1.264974023437500000e+04
-1.264933007812500000e+04
-1.264911035156250000e+04
-1.264876074218750000e+04
-1.264824316406250000e+04
-1.264809863281250000e+04
-1.264799804687500000e+04
-1.264795312500000000e+04
-1.264802539062500000e+04
-1.264819042968750000e+04
-1.264836328125000000e+04
-1.264781640625000000e+04
-1.264771289062500000e+04
-1.264723437500000000e+04
-1.264718066406250000e+04
-1.264725878906250000e+04
-1.264745019531250000e+04
-1.264780273437500000e+04
-1.264893554687500000e+04
-1.264900488281250000e+04
-1.264884570312500000e+04
-1.264787304687500000e+04
-1.264688085937500000e+04
-1.264666406250000000e+04
-1.264660937500000000e+04
-1.264679394531250000e+04
-1.264681933593750000e+04
-1.264659960937500000e+04
-1.264638281250000000e+04
-1.264630859375000000e+04
-1.264623535156250000e+04
-1.264604492187500000e+04
-1.264594433593750000e+04
-1.264586718750000000e+04
-1.264598828125000000e+04
-1.264609375000000000e+04
-1.264620996093750000e+04
-1.264642382812500000e+04
-1.264657812500000000e+04
-1.264666601562500000e+04
-1.264675488281250000e+04
-1.264694531250000000e+04
-1.264714257812500000e+04
-1.264747167968750000e+04
-1.264790429687500000e+04
-1.264841503906250000e+04
-1.264864648437500000e+04
-1.264872070312500000e+04
-1.264874023437500000e+04
-1.264874023437500000e+04
-1.264873437500000000e+04
-1.264820117187500000e+04
-1.264781054687500000e+04
-1.264758789062500000e+04
-1.264700488281250000e+04
-1.264655078125000000e+04
-1.264614453125000000e+04
-1.264586425781250000e+04
-1.264569042968750000e+04
-1.264561132812500000e+04
-1.264537304687500000e+04
-1.264529492187500000e+04
-1.264488378906250000e+04
-1.264488769531250000e+04
-1.264497070312500000e+04
-1.264563964843750000e+04
-1.264640234375000000e+04
-1.264709863281250000e+04
-1.264721777343750000e+04
-1.264706640625000000e+04
-1.264665332031250000e+04
-1.264641503906250000e+04
-1.264637500000000000e+04
-1.264693261718750000e+04
-1.264703515625000000e+04
-1.264772460937500000e+04
-1.264774902343750000e+04
-1.264750878906250000e+04
-1.264726464843750000e+04
-1.264679882812500000e+04
-1.264660449218750000e+04
-1.264668554687500000e+04
-1.264685546875000000e+04
-1.264691992187500000e+04
-1.264720117187500000e+04
-1.264726953125000000e+04
-1.264749414062500000e+04
-1.264761035156250000e+04
-1.264758496093750000e+04
-1.264749804687500000e+04
-1.264705957031250000e+04
-1.264693652343750000e+04
-1.264685546875000000e+04
-1.264686425781250000e+04
-1.264698925781250000e+04
-1.264744921875000000e+04
-1.264753222656250000e+04
-1.264818554687500000e+04
-1.264853320312500000e+04
-1.264871386718750000e+04
-1.264875292968750000e+04
-1.264878027343750000e+04
-1.264875878906250000e+04
-1.264871386718750000e+04
