6.066166795790195465e-03 1.027563190460205078e+01 1.027513790130615234e+01 1.027683830261230469e+01 1.027308940887451172e+01 3.416982173919677734e+00 2.022542245686054230e-02 1.026544666290283203e+01 6.860464572906494141e+00 1.888054609298706055e-02 3.419176578521728516e+00 2.542705275118350549e-03 6.873332429677247134e-03 3.419565200805664062e+00 3.440034866333007812e+00 8.039788808673620224e-04 3.419704437255859375e+00 6.861838817596435547e+00 1.026604938507080078e+01 6.841968536376952237e+00 1.027245426177978516e+01 1.026953220367431641e+01 6.862592220306395596e+00 3.417563199996947798e+00 1.027876091003417969e+01 6.873015403747558594e+00 6.847120761871337891e+00 3.423397779464721236e+00 1.575680635869503021e-02 1.027327346801757812e+01 3.434695959091186523e+00 1.027643775939941406e+01 3.438830137252807617e+00 3.427664756774902788e+00 3.264430910348892212e-03 6.841772556304931641e+00 3.420613288879394087e+00 3.424175262451171875e+00 8.741746656596660614e-03 3.426245450973510742e+00 3.443952322006225586e+00 3.427075386047363281e+00 3.446613073348999023e+00 3.432314157485961914e+00 6.856402873992919922e+00 3.426702499389648438e+00 6.839008808135986328e+00 1.074834913015365427e-02 3.424349784851074219e+00 6.857312679290771484e+00 3.430329799652099609e+00 3.433136940002441406e+00 6.853498935699462891e+00 6.851440906524658203e+00 6.847861289978026456e+00 8.402329869568347931e-03 4.592399578541517258e-03 6.860095977783203125e+00 1.027847671508789062e+01 3.446887254714965820e+00 6.843270301818846768e+00 1.027981662750244141e+01 6.849284648895263672e+00 6.868691444396973544e+00 3.426707267761230469e+00 1.027426719665527344e+01 6.827147483825683594e+00 3.423941373825073242e+00 3.428163290023803711e+00 6.843926906585692471e+00 3.434277057647705078e+00 6.847237586975097656e+00 6.868816375732420987e+00 6.863068103790283203e+00 1.254915259778499603e-02 6.859454631805419034e+00 6.838384628295899326e+00 3.431322813034057617e+00 6.857724666595458096e+00 6.853847503662108487e+00 6.853697299957275391e+00 1.697732925415039062e+00 1.710792660713195801e+00 1.719138503074645996e+00 1.701604485511779785e+00 1.713406085968017578e+00 5.136228561401367188e+00 1.713186740875244141e+00 1.725519061088562012e+00 8.575860023498535156e+00 1.707380175590515137e+00 5.145662307739257812e+00 1.723071217536926270e+00 1.734111070632934348e+00 5.150889396667480469e+00 5.151762962341308594e+00 1.717437028884887473e+00 5.130645275115966797e+00 8.559658050537109375e+00 1.732556462287902832e+00 8.573577880859375000e+00 1.706602931022643821e+00 1.701905488967895286e+00 8.555927276611328125e+00 5.141548633575439453e+00 1.697229385375976562e+00 8.574723243713378906e+00 8.562286376953125000e+00 5.136295318603515625e+00 1.730431675910949707e+00 1.718309283256530762e+00 5.141108512878417969e+00 1.710035562515258789e+00 5.139505386352539062e+00 5.126347064971923828e+00 1.712442040443420410e+00 8.568091392517089844e+00 5.142679214477539062e+00 5.141048431396484375e+00 1.697455286979675293e+00 5.135864257812500000e+00 5.129298686981201172e+00 5.134466648101806641e+00 5.135464668273925781e+00 5.135184288024902344e+00 8.562746047973632812e+00 5.143502235412596768e+00 8.560420989990234375e+00 1.712171196937561035e+00 5.124693393707275391e+00 8.550392150878906250e+00 5.139142513275146484e+00 5.138244628906250000e+00 8.561507225036621094e+00 8.557135581970214844e+00 8.573649406433105469e+00 1.715443730354308860e+00 1.693013668060302734e+00 8.572360992431640625e+00 1.727291345596313477e+00 5.139817237854003906e+00 8.552629470825195312e+00 1.710421800613403320e+00 8.562983512878417969e+00 8.573961257934570312e+00 5.134888648986816406e+00 1.716210842132568137e+00 8.573295593261718750e+00 5.139175415039062500e+00 5.139381885528564453e+00 8.578823089599609375e+00 5.129772186279296875e+00 8.577903747558593750e+00 8.572889328002929688e+00 8.587072372436523438e+00 1.722906112670898215e+00 8.568350791931152344e+00 8.567655563354492188e+00 5.142036914825439453e+00 8.552473068237304688e+00 8.563755989074707031e+00 8.550024032592773438e+00
7.645102590322494507e-02 1.022337150573730469e+01 1.021620178222656250e+01 1.024016857147216797e+01 1.019192981719970703e+01 3.301983833312988281e+00 2.573106884956359863e-01 1.009612369537353516e+01 6.940179347991943359e+00 2.422766685485839844e-01 3.329416036605834961e+00 3.326425701379776001e-02 8.796589821577070756e-02 3.335798025131225586e+00 3.595812559127807617e+00 1.069890335202217102e-02 3.335913658142089400e+00 6.959547042846678799e+00 1.010172843933105469e+01 6.705669403076170987e+00 1.018309020996093750e+01 1.014631175994873047e+01 6.969029903411865234e+00 3.307460308074951172e+00 1.026332855224609375e+01 7.099513053894042969e+00 6.771091461181639737e+00 3.382889747619628462e+00 2.017425447702407837e-01 1.019379711151123047e+01 3.527592658996582031e+00 1.023497962951660156e+01 3.580367088317871094e+00 3.436159133911132812e+00 4.186809808015823364e-02 6.701583385467529297e+00 3.346473932266235352e+00 3.393463850021362305e+00 1.132704913616180420e-01 3.417858600616455078e+00 3.646167755126953125e+00 3.429538488388061523e+00 3.679570674896240234e+00 3.495173931121825728e+00 6.888436794281005859e+00 3.424230337142944336e+00 6.666461944580078125e+00 1.360746324062347412e-01 3.395386695861815962e+00 6.900098800659179688e+00 3.470376491546630859e+00 3.507159709930419922e+00 6.852070331573485440e+00 6.827277660369873047e+00 6.778076648712157315e+00 1.073581501841545105e-01 5.893679708242415688e-02 6.936007022857665127e+00 1.026088714599609375e+01 3.683994293212890625e+00 6.719402790069580078e+00 1.027808094024658203e+01 6.796862125396728516e+00 7.045767784118652344e+00 3.426194906234741211e+00 1.020586299896240234e+01 6.515959739685058594e+00 3.390060901641845703e+00 3.443169832229614702e+00 6.729789733886718750e+00 3.522314548492431641e+00 6.771392822265625000e+00 7.049541473388671875e+00 6.974853038787841797e+00 1.606405675411224643e-01 6.928332805633544922e+00 6.657777786254882812e+00 3.484169960021972656e+00 6.905927181243895596e+00 6.853553295135497159e+00 6.853889942169189453e+00 1.513716101646423118e+00 1.678754448890686035e+00 1.788629293441772461e+00 1.563601970672607422e+00 1.712967634201049583e+00 5.089655876159667969e+00 1.711653113365173340e+00 1.868074536323547363e+00 8.678423881530761719e+00 1.634638190269470215e+00 5.210336685180664062e+00 1.838298201560973899e+00 1.977059006690979004e+00 5.277509212493896484e+00 5.289082050323486328e+00 1.765459775924682617e+00 5.018783569335937500e+00 8.471940994262695312e+00 1.959473609924316184e+00 8.650904655456542969e+00 1.625519752502441406e+00 1.566796302795410156e+00 8.424526214599609375e+00 5.154863357543945312e+00 1.509153366088867188e+00 8.662956237792968750e+00 8.507770538330078125e+00 5.089344978332519531e+00 1.930559635162353516e+00 1.776347160339355247e+00 5.150730133056640625e+00 1.670448422431945801e+00 5.131218910217285156e+00 4.963179111480712891e+00 1.701611399650573730e+00 8.580630302429199219e+00 5.172961711883544922e+00 5.151297092437744141e+00 1.508520722389221191e+00 5.084832668304443359e+00 5.002246856689453125e+00 5.066038608551025391e+00 5.081150531768798828e+00 5.076952457427978516e+00 8.513921737670898438e+00 5.182978153228759766e+00 8.482991218566894531e+00 1.697974920272827148e+00 4.942408084869384766e+00 8.352209091186523438e+00 5.125972270965576172e+00 5.113976955413818359e+00 8.496047019958496094e+00 8.442201614379882812e+00 8.651674270629882812e+00 1.739847660064697266e+00 1.453422904014587402e+00 8.634689331054687500e+00 1.890366911888122559e+00 5.135436534881591797e+00 8.382563591003417969e+00 1.673514485359191895e+00 8.513246536254882812e+00 8.655764579772949219e+00 5.068844795227050781e+00 1.750487923622131126e+00 8.648530960083007812e+00 5.126196861267089844e+00 5.130248546600341797e+00 8.718203544616699219e+00 5.005470752716064453e+00 8.704787254333496094e+00 8.640920639038085938e+00 8.824418067932128906e+00 1.833824396133422630e+00 8.583162307739257812e+00 8.576023101806640625e+00 5.163714885711669922e+00 8.379223823547363281e+00 8.526567459106445312e+00 8.349758148193359375e+00
8.731150627136229081e-02 1.021475791931152344e+01 1.020623874664306641e+01 1.023465347290039062e+01 1.017911338806152344e+01 3.284012556076049805e+00 2.947703897953033447e-01 1.007005214691162109e+01 6.952523231506346768e+00 2.783305048942565918e-01 3.315256118774414062e+00 3.852130472660064697e-02 1.010089591145515303e-01 3.323093891143798828e+00 3.620679616928100586e+00 1.239869464188814163e-02 3.322468280792236328e+00 6.975582599639892578e+00 1.007552719116210938e+01 6.684312820434570312e+00 1.016861152648925781e+01 1.012656211853027344e+01 6.986430168151855469e+00 3.289405584335327148e+00 1.026049804687500000e+01 7.134955406188964844e+00 6.759239673614501065e+00 3.376228094100952148e+00 2.316214293241500854e-01 1.018102741241455078e+01 3.542487859725952148e+00 1.022849464416503906e+01 3.602983474731445312e+00 3.436995029449462891e+00 4.806137457489967346e-02 6.679035663604736328e+00 3.334245443344115767e+00 3.388725280761718750e+00 1.305845975875854492e-01 3.415835380554199219e+00 3.678691387176513672e+00 3.429651737213134322e+00 3.716674804687500000e+00 3.504542350769042969e+00 6.893348217010498047e+00 3.423382759094238281e+00 6.638721466064453125e+00 1.556861102581024170e-01 3.390713930130004883e+00 6.906769275665283203e+00 3.476227283477783203e+00 3.518853425979614258e+00 6.851908683776854581e+00 6.824105739593505859e+00 6.766228675842285156e+00 1.231952533125877380e-01 6.775850802659988403e-02 6.948079109191894531e+00 1.025816535949707031e+01 3.722196340560913086e+00 6.698897838592529297e+00 1.027793312072753906e+01 6.788105487823486328e+00 7.073942184448242188e+00 3.426434993743896040e+00 1.019462585449218750e+01 6.466566085815429688e+00 3.384678363800048828e+00 3.445300102233886719e+00 6.711728572845458984e+00 3.536454200744628906e+00 6.759073257446289062e+00 7.079194545745849609e+00 6.993033885955810547e+00 1.845059543848037720e-01 6.939422607421875000e+00 6.628530025482177734e+00 3.492572307586669922e+00 6.913593769073486328e+00 6.852452278137207031e+00 6.853684425354003906e+00 1.484524011611938477e+00 1.673156499862670898e+00 1.800452232360839844e+00 1.541947603225708008e+00 1.712617278099060059e+00 5.082452297210693359e+00 1.711781740188598633e+00 1.890746593475341797e+00 8.694289207458496094e+00 1.622348666191101074e+00 5.220924377441406250e+00 1.857250928878783958e+00 2.015589475631713867e+00 5.298072338104248047e+00 5.311582565307616299e+00 1.773391842842102051e+00 5.001256465911865234e+00 8.457680702209472656e+00 1.996302723884582520e+00 8.663470268249511719e+00 1.612245202064514160e+00 1.545426845550537109e+00 8.403363227844238281e+00 5.156051635742187500e+00 1.480122923851013184e+00 8.676097869873046875e+00 8.499768257141113281e+00 5.081524848937988281e+00 1.962388992309570312e+00 1.785647034645080566e+00 5.152016639709471768e+00 1.664201498031616211e+00 5.130007266998291016e+00 4.937219619750976562e+00 1.700083971023559570e+00 8.582670211791992188e+00 5.178436279296875888e+00 5.153093338012695312e+00 1.477943539619445801e+00 5.076819896697998047e+00 4.982641220092773438e+00 5.054901123046875000e+00 5.073107719421386719e+00 5.068097114562988281e+00 8.506786346435546875e+00 5.189643383026123047e+00 8.470782279968261719e+00 1.695863127708435059e+00 4.913572311401367188e+00 8.319802284240722656e+00 5.123733997344970703e+00 5.109787940979003906e+00 8.485507965087890625e+00 8.424483299255371094e+00 8.664312362670898438e+00 1.743887186050415039e+00 1.415259480476379172e+00 8.644400596618652344e+00 1.916317105293273926e+00 5.134846210479736328e+00 8.355228424072265625e+00 1.666942358016967773e+00 8.504524230957031250e+00 8.668977737426757812e+00 5.057105064392089844e+00 1.756440401077270508e+00 8.661204338073730469e+00 5.123941898345947266e+00 5.129124641418457031e+00 8.740719795227050781e+00 4.985076904296875000e+00 8.724663734436035156e+00 8.651368141174316406e+00 8.862902641296386719e+00 1.851121544837951660e+00 8.585324287414550781e+00 8.577777862548828125e+00 5.167288780212401456e+00 8.350981712341308594e+00 8.521217346191406250e+00 8.317837715148925781e+00
1.127530410885810852e-01 1.019355010986328125e+01 1.018130779266357422e+01 1.022246646881103516e+01 1.014870262145996094e+01 3.241772174835205078e+00 3.842721581459045410e-01 1.000978946685791016e+01 6.981033325195311612e+00 3.659498393535614014e-01 3.281767606735229492e+00 5.212654545903205178e-02 1.327310800552368164e-01 3.294074773788452148e+00 3.680448770523071289e+00 1.665855757892131805e-02 3.289711713790893111e+00 7.015232563018798828e+00 1.001258277893066406e+01 6.633687019348144531e+00 1.013323974609375000e+01 1.007856845855712891e+01 7.029298782348632812e+00 3.244736671447753906e+00 1.025273227691650391e+01 7.218652725219726562e+00 6.731389999389648438e+00 3.359494924545288086e+00 3.040502071380615234e-01 1.015017414093017578e+01 3.578562259674072710e+00 1.021303939819335938e+01 3.657459259033203125e+00 3.438011884689331055e+00 6.298477947711944580e-02 6.624385356903075284e+00 3.303997278213500977e+00 3.377704381942749023e+00 1.737132668495178223e-01 3.409333705902099609e+00 3.757745265960693359e+00 3.429179430007934570e+00 3.805833816528320312e+00 3.525757551193237305e+00 6.904722690582275391e+00 3.420247316360474077e+00 6.571298599243163174e+00 2.022915184497833252e-01 3.379122734069824219e+00 6.922566890716552734e+00 3.489007472991943359e+00 3.546832561492919922e+00 6.851627826690673828e+00 6.818074226379394531e+00 6.736112117767333984e+00 1.615208536386489591e-01 8.942682296037673950e-02 6.977105617523193359e+00 1.025171375274658203e+01 3.815108299255371094e+00 6.647811889648437500e+00 1.027780246734619141e+01 6.766369342803955078e+00 7.141630649566650391e+00 3.427776813507080078e+00 1.016694641113281250e+01 6.348193168640136719e+00 3.371821165084838867e+00 3.450022935867309570e+00 6.668805599212646484e+00 3.570700168609619141e+00 6.728881359100341797e+00 7.152463912963867188e+00 7.037715911865234375e+00 2.427448928356170654e-01 6.966259002685546875e+00 6.557060718536376065e+00 3.512812137603759322e+00 6.931871414184569424e+00 6.847528457641600674e+00 6.852585315704345703e+00 1.414471030235290527e+00 1.658574104309081809e+00 1.830409407615661621e+00 1.490536570549011230e+00 1.710820317268371582e+00 5.065718173980712891e+00 1.712823152542114258e+00 1.945022225379943848e+00 8.731347084045410156e+00 1.591223835945129395e+00 5.247047424316406250e+00 1.904159307479858398e+00 2.108040571212768555e+00 5.348231792449951172e+00 5.367029666900634766e+00 1.793170452117920144e+00 4.959626197814941406e+00 8.422804832458496094e+00 2.086498022079467773e+00 8.694383621215820312e+00 1.579590559005737305e+00 1.494498014450073242e+00 8.351965904235839844e+00 5.156676292419433594e+00 1.412436723709106223e+00 8.705362319946289062e+00 8.482409477233886719e+00 5.061802864074707031e+00 2.038795948028564453e+00 1.807865023612976074e+00 5.154720783233642578e+00 1.649377942085266113e+00 5.127381801605224609e+00 4.874839782714843750e+00 1.696834921836853027e+00 8.587553977966308594e+00 5.193312168121337891e+00 5.157623291015625888e+00 1.403335452079772949e+00 5.057842731475830078e+00 4.936944961547851562e+00 5.027663230895996094e+00 5.054961681365966797e+00 5.047742843627929688e+00 8.490985870361328125e+00 5.206566810607911044e+00 8.441526412963867188e+00 1.691132664680480957e+00 4.844724655151367188e+00 8.240156173706054688e+00 5.118069648742675781e+00 5.099057674407958984e+00 8.459970474243164062e+00 8.383039474487304688e+00 8.695302963256835938e+00 1.753866314888000266e+00 1.323147058486938477e+00 8.666946411132812500e+00 1.978793501853942871e+00 5.133543491363525391e+00 8.288781166076660156e+00 1.649616360664367676e+00 8.481677055358886719e+00 8.701171875000000000e+00 5.026318073272705078e+00 1.771800160408020020e+00 8.693264007568359375e+00 5.118227005004882812e+00 5.127195358276367188e+00 8.795552253723144531e+00 4.934495925903320312e+00 8.771677970886230469e+00 8.675293922424316406e+00 8.956940650939941406e+00 1.891744256019592063e+00 8.590162277221679688e+00 8.582860946655273438e+00 5.176045417785644531e+00 8.281786918640136719e+00 8.509597778320312500e+00 8.241003990173339844e+00
1.393659412860870361e-01 1.016912937164306641e+01 1.015183830261230469e+01 1.021233367919921875e+01 1.011631679534912109e+01 3.197913169860839844e+00 4.821470677852630615e-01 9.950016975402832031e+00 7.008761405944824219e+00 4.649832546710967462e-01 3.246555089950561523e+00 6.991746276617050171e-02 1.688435375690460205e-01 3.266043901443481445e+00 3.746274948120117188e+00 2.160548418760299683e-02 3.252041816711425781e+00 7.061790943145751953e+00 9.943296432495117188e+00 6.579450130462646484e+00 1.009274005889892578e+01 1.002379703521728516e+01 7.079296112060546875e+00 3.192008256912231445e+00 1.024144744873046875e+01 7.307239532470703125e+00 6.702362537384033203e+00 3.338824987411499023e+00 3.856100142002105713e-01 1.011584663391113281e+01 3.619229555130004883e+00 1.019606304168701172e+01 3.717795372009277344e+00 3.436907052993774858e+00 7.945716381072998047e-02 6.563015937805175781e+00 3.268664836883544922e+00 3.366540908813476562e+00 2.252514213323592862e-01 3.397852182388306108e+00 3.847599506378173384e+00 3.426609039306640625e+00 3.904195547103881836e+00 3.546059131622314453e+00 6.916148662567138672e+00 3.413823843002319336e+00 6.494745731353758877e+00 2.528406381607055664e-01 3.365035057067871094e+00 6.939494609832762784e+00 3.499715566635131836e+00 3.577622890472412109e+00 6.851595401763915127e+00 6.815632343292236328e+00 6.698775768280029297e+00 2.046557515859603604e-01 1.146965324878692627e-01 7.009323596954345703e+00 1.024474430084228516e+01 3.920568466186523438e+00 6.586702823638915127e+00 1.027813148498535156e+01 6.741032600402832031e+00 7.216333866119384766e+00 3.431209087371826172e+00 1.013479518890380859e+01 6.218290328979492188e+00 3.357890367507934126e+00 3.454618692398071289e+00 6.623064994812011719e+00 3.609216928482055220e+00 6.694005966186523438e+00 7.238435745239257812e+00 7.089757919311523438e+00 3.096786737442016602e-01 6.996253967285156250e+00 6.475007057189940518e+00 3.535355329513549361e+00 6.951560974121093750e+00 6.836450576782226562e+00 6.849761486053465909e+00 1.337124824523925781e+00 1.639656424522399902e+00 1.867120265960693137e+00 1.435207128524780051e+00 1.705859184265136497e+00 5.048897743225097656e+00 1.715696096420288086e+00 2.004128217697143555e+00 8.769402503967285156e+00 1.552831053733825684e+00 5.277695178985595703e+00 1.959402084350585715e+00 2.210064172744750977e+00 5.405218601226806641e+00 5.431604862213134766e+00 1.816903829574584961e+00 4.914666652679443359e+00 8.382831573486328125e+00 2.190492391586303711e+00 8.730566024780273438e+00 1.541670441627502441e+00 1.439506888389587402e+00 8.293780326843261719e+00 5.151485443115233487e+00 1.342887043952941895e+00 8.731244087219238281e+00 8.468742370605468750e+00 5.037446022033691406e+00 2.122896671295166016e+00 1.831576228141784668e+00 5.156944274902343750e+00 1.633613467216491699e+00 5.125207901000976562e+00 4.805910110473632812e+00 1.694324970245361328e+00 8.592667579650878906e+00 5.214440345764160156e+00 5.162948131561279297e+00 1.318078398704528587e+00 5.037567138671875000e+00 4.890064716339111328e+00 4.996527194976806641e+00 5.037664890289306641e+00 5.027605533599853516e+00 8.476876258850097656e+00 5.227531433105469638e+00 8.409108161926269531e+00 1.686764001846313255e+00 4.769846916198730469e+00 8.148065567016601562e+00 5.111132621765136719e+00 5.085631847381591797e+00 8.431328773498535156e+00 8.339876174926757812e+00 8.731367111206054688e+00 1.765450358390808105e+00 1.219758510589599609e+00 8.689415931701660156e+00 2.048277378082275391e+00 5.132246494293212891e+00 8.213108062744140625e+00 1.626719474792480469e+00 8.451637268066406250e+00 8.737909317016601562e+00 4.986114978790283203e+00 1.791297554969787598e+00 8.732814788818359375e+00 5.111394882202148438e+00 5.127065181732177734e+00 8.858019828796386719e+00 4.874282836914062500e+00 8.821664810180664062e+00 8.698119163513183594e+00 9.064740180969238281e+00 1.933933377265930176e+00 8.594725608825683594e+00 8.590482711791992188e+00 5.185940742492675781e+00 8.202272415161132812e+00 8.499866485595703125e+00 8.155841827392578125e+00
1.875559836626052856e-01 1.010260963439941406e+01 1.006708145141601562e+01 1.024863052368164062e+01 1.005132007598876953e+01 3.137912511825561523e+00 7.281380891799926758e-01 9.902819633483886719e+00 7.009527206420898438e+00 7.335197329521178089e-01 3.191473722457885298e+00 1.612197458744049072e-01 2.761008441448211670e-01 3.257184028625488281e+00 3.901975870132446289e+00 3.208552300930023193e-02 3.130001068115234375e+00 7.209963798522949219e+00 9.778578758239746094e+00 6.466942310333251953e+00 9.973870277404785156e+00 9.854048728942871094e+00 7.236994266510008877e+00 3.012681484222412109e+00 1.017121028900146484e+01 7.475983619689941406e+00 6.658847332000732422e+00 3.250589132308959961e+00 6.035446524620056152e-01 1.003407287597656250e+01 3.734166860580444336e+00 1.014900970458984375e+01 3.862630605697631836e+00 3.409768819808959961e+00 1.175575107336044312e-01 6.404506683349609375e+00 3.164776325225830078e+00 3.355431318283081055e+00 4.066949784755706232e-01 3.309106111526489258e+00 4.110920429229736328e+00 3.389475584030150923e+00 4.141110420227050781e+00 3.556814908981323242e+00 6.927421092987060547e+00 3.351730108261108398e+00 6.275153160095214844e+00 3.749378919601440430e-01 3.304886102676391602e+00 6.976912498474121094e+00 3.474481105804443359e+00 3.657470941543578657e+00 6.857165336608885831e+00 6.874612808227538174e+00 6.554407119750976562e+00 3.258195817470550537e-01 1.986468434333801270e-01 7.093288898468017578e+00 1.022978305816650391e+01 4.215417861938476562e+00 6.369672775268554688e+00 1.675087725743651390e-03 6.672391891479492188e+00 7.397131919860839844e+00 3.463278770446777344e+00 1.003641891479492188e+01 5.912296295166015625e+00 3.326042890548706055e+00 3.466332435607910156e+00 6.546224117279052734e+00 3.714167594909667969e+00 6.585426807403564453e+00 7.515805244445800781e+00 7.258189678192138672e+00 5.173795819282531738e-01 7.073090076446533203e+00 6.228391647338867188e+00 3.594872236251831055e+00 6.991058826446533203e+00 6.734907150268554688e+00 6.820017337799072266e+00 1.142156362533569336e+00 1.559508204460144043e+00 1.998328208923339844e+00 1.316292524337768555e+00 1.641198992729187012e+00 5.034365177154541016e+00 1.741274356842040794e+00 2.132307052612304688e+00 8.818613052368164062e+00 1.403482317924499512e+00 5.380575656890869141e+00 2.140888929367065430e+00 2.463615894317626953e+00 5.558636665344237393e+00 5.629128456115722656e+00 1.901434063911437988e+00 4.812542915344238281e+00 8.266665458679199219e+00 2.506977558135986328e+00 8.851763725280761719e+00 1.423258304595947266e+00 1.322514295578002708e+00 8.127392768859863281e+00 5.056968212127685547e+00 1.231562376022338867e+00 8.695816040039062500e+00 8.521837234497070312e+00 4.937383174896240234e+00 2.322694301605224609e+00 1.865840435028076172e+00 5.156728744506835938e+00 1.608103036880492942e+00 5.128613948822021484e+00 4.636249065399169922e+00 1.703301548957824707e+00 8.595160484313964844e+00 5.338513374328613281e+00 5.176862239837646484e+00 1.069000244140625000e+00 4.994859218597412109e+00 4.823032379150390625e+00 4.910759925842285156e+00 5.026054859161376953e+00 5.009415626525878906e+00 8.485202789306640625e+00 5.310047626495361328e+00 8.320375442504882812e+00 1.687829375267028809e+00 4.603985786437988281e+00 7.875094413757324219e+00 5.085042953491210938e+00 5.034368515014648438e+00 8.358338356018066406e+00 8.265203475952148438e+00 8.850320816040039062e+00 1.798292875289917214e+00 9.264279007911682129e-01 8.703570365905761719e+00 2.230428695678710938e+00 5.127650737762451172e+00 7.986636638641357422e+00 1.522611260414123757e+00 8.314058303833007812e+00 8.845929145812988281e+00 4.810809612274169922e+00 1.869405388832092285e+00 8.888431549072265625e+00 5.094803333282470703e+00 5.154575347900390625e+00 9.043583869934082031e+00 4.658941745758056641e+00 8.918622016906738281e+00 8.688592910766601562e+00 9.388314247131347656e+00 1.996684074401855469e+00 8.598556518554687500e+00 8.631400108337402344e+00 5.207554340362548828e+00 7.970271110534667969e+00 8.517990112304687500e+00 7.944171428680419034e+00
1.856247782707214355e-01 1.009040832519531250e+01 1.004962444305419922e+01 1.223982684314250946e-02 1.004405975341796875e+01 3.157776355743408203e+00 7.794983386993408203e-01 9.946139335632324219e+00 6.972963809967041016e+00 7.896124124526977539e-01 3.202154874801636186e+00 2.066268175840377530e-01 3.065662980079650879e-01 3.291068553924560547e+00 3.924353599548339844e+00 3.099722042679786682e-02 3.089963674545288086e+00 7.250991344451903409e+00 9.754815101623535156e+00 6.459161281585693359e+00 9.942809104919433594e+00 9.802463531494140625e+00 7.282299518585205078e+00 2.953707218170166016e+00 1.013614654541015625e+01 7.479063034057617188e+00 6.669070243835448331e+00 3.212997674942016602e+00 6.469591259956359863e-01 1.002456569671630859e+01 3.763098239898681197e+00 1.013582611083984375e+01 3.881061792373657227e+00 3.392728567123413086e+00 1.212587058544158936e-01 6.377467632293701172e+00 3.141576051712036133e+00 3.364072322845458540e+00 4.678647816181182861e-01 3.260782957077025923e+00 4.179937839508056641e+00 3.365561485290527344e+00 4.175828456878662109e+00 3.537257432937622070e+00 6.919253826141357422e+00 3.313024997711181641e+00 6.220650672912597656e+00 3.969722986221312921e-01 3.278545379638671431e+00 6.982090473175048828e+00 3.438829660415649414e+00 3.674584627151489258e+00 6.862786293029785156e+00 6.924815177917480469e+00 6.501146793365478516e+00 3.557960391044616699e-01 2.255670428276062012e-01 7.110266208648681641e+00 1.022953033447265625e+01 4.281383037567138672e+00 6.293799877166748047e+00 1.826010528020560741e-03 6.661611080169677734e+00 7.422663211822509766e+00 3.480216503143310547e+00 1.000948429107666016e+01 5.871316432952880859e+00 3.320702791213988814e+00 3.470333099365234375e+00 6.558472633361816406e+00 3.737510204315185103e+00 6.554156780242919922e+00 7.597747802734374112e+00 7.309981346130370206e+00 5.778182744979858398e-01 7.087647914886474609e+00 6.161986351013183594e+00 3.607063055038452148e+00 6.992600440979003018e+00 6.676919937133788174e+00 6.802735805511474609e+00 1.107181787490844727e+00 1.530232429504394531e+00 2.039686203002929688e+00 1.305344939231872559e+00 1.598851323127746360e+00 5.047522544860839844e+00 1.753643751144409180e+00 2.142658233642578125e+00 8.799673080444335938e+00 1.346323013305663840e+00 5.415195941925048828e+00 2.195854187011718750e+00 2.505924463272094727e+00 5.588141441345214844e+00 5.680249214172363281e+00 1.929909586906433105e+00 4.799230098724365234e+00 8.238615989685058594e+00 2.593450546264648438e+00 8.890996932983398438e+00 1.389126777648925559e+00 1.312448859214782715e+00 8.084718704223632812e+00 4.996573925018310547e+00 1.241024971008300781e+00 8.632945060729980469e+00 8.576278686523437500e+00 4.897090911865234375e+00 2.349498033523559570e+00 1.854111552238464355e+00 5.154473304748535156e+00 1.614053845405578613e+00 5.133325576782226562e+00 4.609689235687255859e+00 1.713573336601257324e+00 8.588225364685058594e+00 5.402531147003172940e+00 5.179981708526611328e+00 1.005565881729125977e+00 4.990560531616210938e+00 4.839858055114746094e+00 4.893193721771240234e+00 5.040054798126220703e+00 5.023646354675292969e+00 8.509499549865722656e+00 5.341698646545409268e+00 8.298318862915039062e+00 1.695073008537292480e+00 4.589565753936767578e+00 7.807056903839111328e+00 5.075385093688964844e+00 5.016955375671386719e+00 8.346875190734863281e+00 8.272005081176757812e+00 8.888195991516113281e+00 1.805080294609069824e+00 8.508912324905395508e-01 8.680763244628906250e+00 2.267658233642578125e+00 5.124646663665771484e+00 7.923864364624023438e+00 1.479515910148620605e+00 8.256131172180175781e+00 8.873735427856445312e+00 4.740281581878662109e+00 1.897945046424865501e+00 8.948489189147949219e+00 5.095180988311767578e+00 5.175529479980467862e+00 9.095835685729980469e+00 4.584004878997802734e+00 8.919824600219726562e+00 8.645629882812500000e+00 9.479926109313964844e+00 1.984308123588562012e+00 8.596392631530761719e+00 8.648614883422851562e+00 5.207830429077148438e+00 7.912124633789062500e+00 8.545056343078613281e+00 7.909356117248535156e+00