-1.098245605468750000e+04
-1.097998632812500000e+04
-1.097935351562500000e+04
-1.097750292968750000e+04
-1.097495800781250000e+04
-1.096824023437500000e+04
-1.096788671875000000e+04
-1.096830175781250000e+04
-1.096850683593750000e+04
-1.096918652343750000e+04
-1.096941601562500000e+04
-1.096952539062500000e+04
-1.097009277343750000e+04
-1.097058398437500000e+04
-1.097072070312500000e+04
-1.097090429687500000e+04
-1.097109179687500000e+04
-1.097109570312500000e+04
-1.097104882812500000e+04
-1.097095703125000000e+04
-1.097092089843750000e+04
-1.097087988281250000e+04
-1.097081250000000000e+04
-1.097077539062500000e+04
-1.097075488281250000e+04
-1.097073437500000000e+04
-1.097071386718750000e+04
-1.097069628906250000e+04
-1.097063769531250000e+04
-1.097075488281250000e+04
-1.097091406250000000e+04
-1.097098535156250000e+04
-1.097152734375000000e+04
-1.097112011718750000e+04
-1.097108691406250000e+04
-1.097084277343750000e+04
-1.097078125000000000e+04
-1.097071679687500000e+04
-1.097058691406250000e+04
-1.097048144531250000e+04
-1.097044628906250000e+04
-1.097033496093750000e+04
-1.097013281250000000e+04
-1.096997167968750000e+04
-1.096975878906250000e+04
-1.096971777343750000e+04
-1.096963769531250000e+04
-1.096952539062500000e+04
-1.096941992187500000e+04
-1.096938964843750000e+04
-1.096925000000000000e+04
-1.096919921875000000e+04
-1.096910449218750000e+04
-1.096880273437500000e+04
-1.096868164062500000e+04
-1.096856738281250000e+04
-1.096841992187500000e+04
-1.096837597656250000e+04
-1.096843457031250000e+04
-1.096860644531250000e+04
-1.096885839843750000e+04
-1.096891113281250000e+04
-1.096900976562500000e+04
-1.096916894531250000e+04
-1.096945019531250000e+04
-1.096955859375000000e+04
-1.096971777343750000e+04
-1.096998535156250000e+04
-1.097036621093750000e+04
-1.097088964843750000e+04
-1.097107128906250000e+04
-1.097126367187500000e+04
-1.097129687500000000e+04
-1.097141894531250000e+04
-1.097144824218750000e+04
-1.097143261718750000e+04
-1.097135156250000000e+04
-1.097134472656250000e+04
-1.097092382812500000e+04
-1.097088574218750000e+04
-1.097084179687500000e+04
-1.097019726562500000e+04
-1.097013671875000000e+04
-1.096952734375000000e+04
-1.096936425781250000e+04
-1.096918164062500000e+04
-1.096920507812500000e+04
-1.096929394531250000e+04
-1.096971875000000000e+04
-1.096976171875000000e+04
-1.096988085937500000e+04
-1.097002441406250000e+04
-1.097017285156250000e+04
-1.097018652343750000e+04
-1.097019628906250000e+04
-1.097022167968750000e+04
-1.097017968750000000e+04
-1.097016699218750000e+04
-1.097014941406250000e+04
-1.097011425781250000e+04
-1.097007226562500000e+04
-1.096998046875000000e+04
-1.096993164062500000e+04
-1.096981835937500000e+04
-1.096976171875000000e+04
-1.096975683593750000e+04
-1.096976855468750000e+04
-1.096989257812500000e+04
-1.096990820312500000e+04
-1.096993554687500000e+04
-1.096995214843750000e+04
-1.096999414062500000e+04
-1.097000878906250000e+04
-1.097008203125000000e+04
-1.097017187500000000e+04
-1.097018164062500000e+04
-1.097019042968750000e+04
-1.097020410156250000e+04
-1.097017675781250000e+04
-1.097016601562500000e+04
-1.097010644531250000e+04
-1.097007910156250000e+04
-1.096997949218750000e+04
-1.097000683593750000e+04
-1.097002832031250000e+04
-1.097010742187500000e+04
-1.097013183593750000e+04
-1.097015820312500000e+04
-1.097079785156250000e+04
-1.097083300781250000e+04
-1.097110253906250000e+04
-1.097111523437500000e+04
-1.097114453125000000e+04
-1.097116503906250000e+04
-1.097116601562500000e+04
-1.097115917968750000e+04
-1.097112011718750000e+04
-1.097096582031250000e+04
-1.097090332031250000e+04
-1.097067285156250000e+04
-1.097027734375000000e+04
-1.096958593750000000e+04
-1.096954785156250000e+04
-1.096951269531250000e+04
-1.096937792968750000e+04
-1.096925585937500000e+04
-1.096921484375000000e+04
-1.096937890625000000e+04
-1.096946191406250000e+04
-1.096960937500000000e+04
-1.097010058593750000e+04
-1.097038476562500000e+04
-1.097064355468750000e+04
-1.097066113281250000e+04
-1.097059570312500000e+04
-1.097054785156250000e+04
-1.097048828125000000e+04
-1.097027929687500000e+04
-1.097018652343750000e+04
-1.097011718750000000e+04
-1.097007421875000000e+04
-1.097005761718750000e+04
-1.097016015625000000e+04
-1.097045800781250000e+04
-1.097055859375000000e+04
-1.097069335937500000e+04
-1.097072265625000000e+04
-1.097072167968750000e+04
-1.097068554687500000e+04
-1.097062207031250000e+04
-1.097040722656250000e+04
-1.097039160156250000e+04
-1.097034570312500000e+04
-1.097030273437500000e+04
-1.097025878906250000e+04
-1.097025000000000000e+04
-1.097016503906250000e+04
-1.097015527343750000e+04
-1.097013574218750000e+04
-1.096980273437500000e+04
-1.096976953125000000e+04
-1.096973046875000000e+04
-1.096969531250000000e+04
-1.096972656250000000e+04
-1.096975292968750000e+04
-1.096982128906250000e+04
-1.096982617187500000e+04
-1.096991503906250000e+04
-1.096993457031250000e+04
-1.097015136718750000e+04
-1.097121875000000000e+04
-1.097131835937500000e+04
-1.097134667968750000e+04
-1.097134082031250000e+04
-1.097087890625000000e+04
-1.097055957031250000e+04
-1.096972167968750000e+04
-1.096871679687500000e+04
-1.096869531250000000e+04
-1.096872363281250000e+04
-1.096919042968750000e+04
-1.096947851562500000e+04
-1.096978125000000000e+04
-1.097015332031250000e+04
-1.097022070312500000e+04
-1.097064941406250000e+04
-1.097090722656250000e+04
-1.097097558593750000e+04
-1.097097265625000000e+04
-1.097097070312500000e+04
-1.097093359375000000e+04
-1.097091601562500000e+04
-1.097090820312500000e+04
-1.097091113281250000e+04
-1.097086425781250000e+04
-1.097083984375000000e+04
-1.097061035156250000e+04
-1.097058203125000000e+04
-1.097040234375000000e+04
-1.097032031250000000e+04
-1.097026757812500000e+04
-1.097025683593750000e+04
-1.097025195312500000e+04
-1.097025097656250000e+04
-1.097028027343750000e+04
-1.097029492187500000e+04
-1.097029589843750000e+04
-1.097019042968750000e+04
-1.097011914062500000e+04
-1.097006054687500000e+04
-1.096988671875000000e+04
-1.097026855468750000e+04
-1.097040820312500000e+04
-1.097093457031250000e+04
-1.097098828125000000e+04
-1.097101660156250000e+04
-1.097110058593750000e+04
-1.097108886718750000e+04
-1.097087890625000000e+04
-1.097068847656250000e+04
-1.097063281250000000e+04
-1.097044238281250000e+04
-1.097024218750000000e+04
-1.097001367187500000e+04
-1.096877343750000000e+04
-1.096865429687500000e+04
-1.096866015625000000e+04
-1.096899218750000000e+04
-1.096903515625000000e+04
-1.096907226562500000e+04
-1.096911914062500000e+04
-1.096943750000000000e+04
-1.096952832031250000e+04
-1.096970019531250000e+04
-1.096973730468750000e+04
-1.096983398437500000e+04
-1.096996386718750000e+04
-1.096998339843750000e+04
-1.096998339843750000e+04
-1.096997949218750000e+04
-1.096987109375000000e+04
-1.096984472656250000e+04
-1.096982910156250000e+04
-1.096983203125000000e+04
-1.096988476562500000e+04
-1.096997070312500000e+04
-1.096999707031250000e+04
-1.097027343750000000e+04
-1.097020410156250000e+04
-1.097017968750000000e+04
-1.097015332031250000e+04
-1.097003906250000000e+04
-1.096994531250000000e+04
-1.096979589843750000e+04
-1.096973925781250000e+04
-1.096973730468750000e+04
-1.096975683593750000e+04
-1.096988476562500000e+04
-1.097021777343750000e+04
-1.097080566406250000e+04
-1.097085644531250000e+04
-1.097140234375000000e+04
-1.097141113281250000e+04
-1.097140429687500000e+04
-1.097121972656250000e+04
-1.097070019531250000e+04
-1.097053125000000000e+04
-1.097047265625000000e+04
-1.096937109375000000e+04
-1.096928417968750000e+04
-1.096902539062500000e+04
-1.096899707031250000e+04
-1.096893945312500000e+04
-1.096917285156250000e+04
-1.096921972656250000e+04
-1.096933105468750000e+04
-1.096944726562500000e+04
-1.097042480468750000e+04
-1.097045703125000000e+04
-1.097046289062500000e+04
-1.097045605468750000e+04
-1.097010351562500000e+04
-1.096980175781250000e+04
-1.096976464843750000e+04
-1.096957128906250000e+04
-1.096947265625000000e+04
-1.096948535156250000e+04
-1.096949121093750000e+04
-1.096952734375000000e+04
-1.096954199218750000e+04
-1.096954785156250000e+04
-1.096950390625000000e+04
-1.096909570312500000e+04
-1.096878808593750000e+04
-1.096840136718750000e+04
-1.096836230468750000e+04
-1.096820410156250000e+04
-1.096820117187500000e+04
-1.096820410156250000e+04
-1.096835156250000000e+04
-1.096883691406250000e+04
-1.096925000000000000e+04
-1.096978808593750000e+04
-1.097003906250000000e+04
-1.097059472656250000e+04
-1.097057519531250000e+04
-1.097052148437500000e+04
-1.097048632812500000e+04
-1.097040039062500000e+04
-1.096958886718750000e+04
-1.096943457031250000e+04
-1.096890136718750000e+04
-1.096861035156250000e+04
-1.096860839843750000e+04
-1.096871582031250000e+04
-1.096875488281250000e+04
-1.096881445312500000e+04
-1.096886523437500000e+04
-1.096886621093750000e+04
-1.096885449218750000e+04
-1.096883984375000000e+04
-1.096907910156250000e+04
-1.096918652343750000e+04
-1.096938574218750000e+04
-1.097001757812500000e+04
-1.097000781250000000e+04
-1.096975878906250000e+04
-1.096969531250000000e+04
-1.096949316406250000e+04
-1.096945800781250000e+04
-1.096939062500000000e+04
-1.096909277343750000e+04
-1.096902050781250000e+04
-1.096899511718750000e+04
-1.096877832031250000e+04
-1.096864062500000000e+04
-1.096858886718750000e+04
-1.096858691406250000e+04
-1.096860449218750000e+04
-1.096862304687500000e+04
-1.096870214843750000e+04
-1.096923046875000000e+04
-1.096929003906250000e+04
-1.097014843750000000e+04
-1.097014257812500000e+04
-1.096986425781250000e+04
-1.096982617187500000e+04
-1.096968164062500000e+04
-1.096952832031250000e+04
-1.096943847656250000e+04
-1.096940136718750000e+04
-1.096932226562500000e+04
-1.096904882812500000e+04
-1.096891601562500000e+04
-1.096886816406250000e+04
-1.096871777343750000e+04
-1.096866894531250000e+04
-1.096819824218750000e+04
-1.096726757812500000e+04
-1.096721289062500000e+04
-1.096721386718750000e+04
-1.096725683593750000e+04
-1.096737011718750000e+04
-1.096756640625000000e+04
-1.096777539062500000e+04
-1.096785449218750000e+04
-1.096793652343750000e+04
-1.096802441406250000e+04
-1.096820898437500000e+04
-1.097002734375000000e+04
-1.097029687500000000e+04
-1.097033203125000000e+04
-1.097043750000000000e+04
-1.097042675781250000e+04
-1.097030957031250000e+04
-1.097017480468750000e+04
-1.096971582031250000e+04
-1.096912011718750000e+04
-1.096876660156250000e+04
-1.096874511718750000e+04
-1.096873730468750000e+04
-1.096871875000000000e+04
-1.096871386718750000e+04
-1.096869531250000000e+04
-1.096866015625000000e+04
-1.096857031250000000e+04
-1.096854785156250000e+04
-1.096852636718750000e+04
-1.096847460937500000e+04
-1.096833203125000000e+04
-1.096826855468750000e+04
-1.096792968750000000e+04
-1.096792773437500000e+04
-1.096794726562500000e+04
-1.096796777343750000e+04
-1.096798046875000000e+04
-1.096804003906250000e+04
-1.096817675781250000e+04
-1.096827832031250000e+04
-1.096836132812500000e+04
-1.096871875000000000e+04
-1.096874316406250000e+04
-1.096877050781250000e+04
-1.096891796875000000e+04
-1.096893164062500000e+04
-1.096900097656250000e+04
-1.096902246093750000e+04
-1.096910351562500000e+04
-1.096908789062500000e+04
-1.096901367187500000e+04
-1.096889355468750000e+04
-1.096832617187500000e+04
-1.096785058593750000e+04
-1.096782421875000000e+04
-1.096785839843750000e+04
-1.096794238281250000e+04
-1.096854003906250000e+04
-1.096879980468750000e+04
-1.096893359375000000e+04
-1.096909082031250000e+04
-1.096906542968750000e+04
-1.096900195312500000e+04
-1.096898535156250000e+04
-1.096885644531250000e+04
-1.096880175781250000e+04
-1.096866796875000000e+04
-1.096863281250000000e+04
-1.096830859375000000e+04
-1.096820019531250000e+04
-1.096797167968750000e+04
-1.096779199218750000e+04
-1.096749609375000000e+04
-1.096727929687500000e+04
-1.096726953125000000e+04
-1.096728710937500000e+04
-1.096732519531250000e+04
-1.096737402343750000e+04
-1.096775195312500000e+04
-1.096798046875000000e+04
-1.096823828125000000e+04
-1.096837402343750000e+04
-1.096859082031250000e+04
-1.096887890625000000e+04
-1.096924023437500000e+04
-1.096936621093750000e+04
-1.096942968750000000e+04
-1.096980664062500000e+04
-1.096973144531250000e+04
-1.096970800781250000e+04
-1.096967871093750000e+04
-1.096964941406250000e+04
-1.096962207031250000e+04
-1.096934960937500000e+04
-1.096919238281250000e+04
-1.096911816406250000e+04
-1.096872460937500000e+04
-1.096833300781250000e+04
-1.096822265625000000e+04
-1.096778710937500000e+04
-1.096772167968750000e+04
-1.096764453125000000e+04
-1.096764062500000000e+04
-1.096765234375000000e+04
-1.096776757812500000e+04
-1.096781640625000000e+04
-1.096786816406250000e+04
-1.096789550781250000e+04
-1.096797070312500000e+04
-1.096799121093750000e+04
-1.096800195312500000e+04
-1.096798437500000000e+04
-1.096793750000000000e+04
-1.096782226562500000e+04
-1.096762109375000000e+04
-1.096755957031250000e+04
-1.096779492187500000e+04
-1.096825000000000000e+04
-1.096866796875000000e+04
-1.096879589843750000e+04
-1.096883105468750000e+04
-1.096899316406250000e+04
-1.096903125000000000e+04
-1.096908593750000000e+04
-1.096908496093750000e+04
-1.096907421875000000e+04
-1.096905371093750000e+04
-1.096901660156250000e+04
-1.096895312500000000e+04
-1.096875390625000000e+04
-1.096868164062500000e+04
-1.096850195312500000e+04
-1.096846875000000000e+04
-1.096840820312500000e+04
-1.096839648437500000e+04
-1.096834960937500000e+04
-1.096833105468750000e+04
-1.096820507812500000e+04
-1.096815722656250000e+04
-1.096814453125000000e+04
-1.096812890625000000e+04
-1.096812988281250000e+04
-1.096812890625000000e+04
-1.096815527343750000e+04
-1.096816894531250000e+04
-1.096824609375000000e+04
-1.096836132812500000e+04
-1.096874414062500000e+04
-1.096878906250000000e+04
-1.096897070312500000e+04
-1.096923339843750000e+04
-1.096928808593750000e+04
-1.096928515625000000e+04
-1.096928515625000000e+04
-1.096926074218750000e+04
-1.096895605468750000e+04
-1.096891894531250000e+04
-1.096872656250000000e+04
-1.096869726562500000e+04
-1.096866992187500000e+04
-1.096865234375000000e+04
-1.096873828125000000e+04
-1.096895800781250000e+04
-1.096899511718750000e+04
-1.096907226562500000e+04
-1.096937207031250000e+04
-1.096939355468750000e+04
-1.096944042968750000e+04
-1.096940429687500000e+04
-1.096930664062500000e+04
-1.096880273437500000e+04
-1.096878027343750000e+04
-1.096875585937500000e+04
-1.096862207031250000e+04
-1.096843066406250000e+04
-1.096836621093750000e+04
-1.096833886718750000e+04
-1.096828417968750000e+04
-1.096825976562500000e+04
-1.096814062500000000e+04
-1.096828027343750000e+04
-1.096839355468750000e+04
-1.096846289062500000e+04
-1.096846484375000000e+04
-1.096844238281250000e+04
-1.096837695312500000e+04
-1.096800488281250000e+04
-1.096788183593750000e+04
-1.096775292968750000e+04
-1.096718750000000000e+04
-1.096715429687500000e+04
-1.096710449218750000e+04
-1.096706542968750000e+04
-1.096714062500000000e+04
-1.096722949218750000e+04
-1.096746289062500000e+04
-1.096756054687500000e+04
-1.096764453125000000e+04
-1.096768847656250000e+04
-1.096776953125000000e+04
-1.096786132812500000e+04
-1.096789648437500000e+04
-1.096810058593750000e+04
-1.096822949218750000e+04
-1.096824316406250000e+04
-1.096824511718750000e+04
-1.096824511718750000e+04
-1.096824316406250000e+04
-1.096822558593750000e+04
-1.096819824218750000e+04
-1.096819042968750000e+04
-1.096803320312500000e+04
-1.096799414062500000e+04
-1.096797851562500000e+04
-1.096795312500000000e+04
-1.096791210937500000e+04
-1.096770703125000000e+04
-1.096767675781250000e+04
-1.096760644531250000e+04
-1.096749316406250000e+04
-1.096738378906250000e+04
-1.096718066406250000e+04
-1.096716601562500000e+04
-1.096718457031250000e+04
-1.096725683593750000e+04
-1.096729492187500000e+04
-1.096733398437500000e+04
-1.096760351562500000e+04
-1.096796679687500000e+04
-1.096918066406250000e+04
-1.096909765625000000e+04
-1.096898046875000000e+04
-1.096858105468750000e+04
-1.096814355468750000e+04
-1.096690722656250000e+04
-1.096673339843750000e+04
-1.096655371093750000e+04
-1.096674414062500000e+04
-1.096683886718750000e+04
-1.096687792968750000e+04
-1.096688964843750000e+04
-1.096692773437500000e+04
-1.096697167968750000e+04
-1.096698046875000000e+04
-1.096701660156250000e+04
-1.096707421875000000e+04
-1.096712988281250000e+04
-1.096716992187500000e+04
-1.096737207031250000e+04
-1.096739843750000000e+04
-1.096743261718750000e+04
-1.096749609375000000e+04
-1.096777636718750000e+04
-1.096791015625000000e+04
-1.096806347656250000e+04
-1.096853320312500000e+04
-1.096858789062500000e+04
-1.096849609375000000e+04
-1.096775097656250000e+04
-1.096679687500000000e+04
-1.096650781250000000e+04
-1.096611914062500000e+04
-1.096586328125000000e+04
-1.096592480468750000e+04
-1.096595703125000000e+04
-1.096599609375000000e+04
-1.096608789062500000e+04
-1.096641601562500000e+04
-1.096685156250000000e+04
-1.096715039062500000e+04
-1.096726757812500000e+04
-1.096732910156250000e+04
-1.096738769531250000e+04
-1.096750000000000000e+04
-1.096798535156250000e+04
-1.096817480468750000e+04
-1.096843164062500000e+04
-1.096839257812500000e+04
-1.096816406250000000e+04
-1.096792382812500000e+04
-1.096785742187500000e+04
-1.096757226562500000e+04
-1.096722265625000000e+04
-1.096715722656250000e+04
-1.096688964843750000e+04
-1.096664550781250000e+04
-1.096662500000000000e+04
-1.096658105468750000e+04
-1.096653417968750000e+04
-1.096658593750000000e+04
-1.096668554687500000e+04
-1.096680664062500000e+04
-1.096685351562500000e+04
-1.096690332031250000e+04
-1.096755175781250000e+04
-1.096780078125000000e+04
-1.096796386718750000e+04
-1.096804394531250000e+04
-1.096841601562500000e+04
-1.096887988281250000e+04
-1.096888769531250000e+04
-1.096889550781250000e+04
-1.096874511718750000e+04
-1.096859082031250000e+04
-1.096818359375000000e+04
-1.096782617187500000e+04
-1.096771093750000000e+04
-1.096765136718750000e+04
-1.096697949218750000e+04
-1.096683496093750000e+04
-1.096662695312500000e+04
-1.096636035156250000e+04
-1.096625292968750000e+04
-1.096627441406250000e+04
-1.096638671875000000e+04
-1.096649902343750000e+04
-1.096672363281250000e+04
-1.096700000000000000e+04
-1.096803515625000000e+04
-1.096840917968750000e+04
-1.096856347656250000e+04
-1.096844042968750000e+04
-1.096815527343750000e+04
-1.096795898437500000e+04
-1.096789257812500000e+04
-1.096752441406250000e+04
-1.096742089843750000e+04
-1.096737109375000000e+04
-1.096735351562500000e+04
-1.096731152343750000e+04
-1.096731738281250000e+04
-1.096731250000000000e+04
-1.096729882812500000e+04
-1.096728808593750000e+04
-1.096728417968750000e+04
-1.096727539062500000e+04
-1.096726953125000000e+04
-1.096726562500000000e+04
-1.096725585937500000e+04
-1.096725195312500000e+04
-1.096721093750000000e+04
-1.096714648437500000e+04
-1.096713281250000000e+04
-1.096719921875000000e+04
-1.096724707031250000e+04
-1.096731542968750000e+04
-1.096732226562500000e+04
-1.096732128906250000e+04
-1.096731054687500000e+04
-1.096728808593750000e+04
-1.096723046875000000e+04
-1.096722265625000000e+04
-1.096718457031250000e+04
-1.096713183593750000e+04
-1.096712304687500000e+04
-1.096711425781250000e+04
-1.096713085937500000e+04
-1.096716894531250000e+04
-1.096722167968750000e+04
-1.096725195312500000e+04
-1.096717773437500000e+04
-1.096667871093750000e+04
-1.096622265625000000e+04
-1.096641113281250000e+04
-1.096718261718750000e+04
-1.096817578125000000e+04
-1.096836328125000000e+04
-1.096865820312500000e+04
-1.096859863281250000e+04
-1.096852636718750000e+04
-1.096805664062500000e+04
-1.096793847656250000e+04
-1.096743457031250000e+04
-1.096704980468750000e+04
-1.096598925781250000e+04
-1.096586914062500000e+04
-1.096583007812500000e+04
-1.096606933593750000e+04
-1.096634082031250000e+04
-1.096644726562500000e+04
-1.096778710937500000e+04
-1.096826757812500000e+04
-1.096849414062500000e+04
-1.096852636718750000e+04
-1.096854785156250000e+04
-1.096838183593750000e+04
-1.096814746093750000e+04
-1.096686132812500000e+04
-1.096631152343750000e+04
-1.096577929687500000e+04
-1.096573828125000000e+04
-1.096570898437500000e+04
-1.096571386718750000e+04
-1.096669531250000000e+04
-1.096672070312500000e+04
-1.096665234375000000e+04
-1.096656347656250000e+04
-1.096651367187500000e+04
-1.096619921875000000e+04
-1.096586523437500000e+04
-1.096557031250000000e+04
-1.096554980468750000e+04
-1.096561425781250000e+04
-1.096599609375000000e+04
-1.096639355468750000e+04
-1.096663964843750000e+04
-1.096680175781250000e+04
-1.096771875000000000e+04
-1.096778417968750000e+04
-1.096778710937500000e+04
-1.096779296875000000e+04
-1.096775683593750000e+04
-1.096758300781250000e+04
-1.096746191406250000e+04
-1.096536816406250000e+04
-1.096532519531250000e+04
-1.096530175781250000e+04
-1.096541894531250000e+04
-1.096562402343750000e+04
-1.096570898437500000e+04
-1.096632324218750000e+04
-1.096642968750000000e+04
-1.096676464843750000e+04
-1.096743750000000000e+04
-1.096793457031250000e+04
-1.096795507812500000e+04
-1.096779101562500000e+04
-1.096768359375000000e+04
-1.096764062500000000e+04
-1.096752148437500000e+04
-1.096748242187500000e+04
-1.096710351562500000e+04
-1.096703515625000000e+04
-1.096700097656250000e+04
-1.096681250000000000e+04
-1.096657617187500000e+04
-1.096646484375000000e+04
-1.096641796875000000e+04
-1.096639062500000000e+04
-1.096639550781250000e+04
-1.096640234375000000e+04
-1.096640136718750000e+04
-1.096640039062500000e+04
-1.096640625000000000e+04
-1.096641210937500000e+04
-1.096667382812500000e+04
-1.096672656250000000e+04
-1.096680859375000000e+04
-1.096685839843750000e+04
-1.096687988281250000e+04
-1.096689941406250000e+04
-1.096693945312500000e+04
-1.096695800781250000e+04
-1.096697363281250000e+04
-1.096698925781250000e+04
-1.096700292968750000e+04
-1.096701757812500000e+04
-1.096706835937500000e+04
-1.096697363281250000e+04
-1.096695312500000000e+04
-1.096692578125000000e+04
-1.096683886718750000e+04
-1.096674511718750000e+04
-1.096645117187500000e+04
-1.096638671875000000e+04
-1.096637500000000000e+04
-1.096638378906250000e+04
-1.096664160156250000e+04
-1.096668359375000000e+04
-1.096687792968750000e+04
-1.096693847656250000e+04
-1.096698632812500000e+04
-1.096699316406250000e+04
-1.096700781250000000e+04
-1.096701367187500000e+04
-1.096702343750000000e+04
-1.096697070312500000e+04
-1.096678613281250000e+04
-1.096666015625000000e+04
-1.096596679687500000e+04
-1.096572167968750000e+04
-1.096521484375000000e+04
-1.096468066406250000e+04
-1.096457128906250000e+04
-1.096455273437500000e+04
-1.096461914062500000e+04
-1.096505664062500000e+04
-1.096526562500000000e+04
-1.096559375000000000e+04
-1.096559472656250000e+04
-1.096554785156250000e+04
-1.096539453125000000e+04
-1.096514550781250000e+04
-1.096510742187500000e+04
-1.096522167968750000e+04
-1.096527734375000000e+04
-1.096541015625000000e+04
-1.096618164062500000e+04
-1.096692675781250000e+04
-1.096709960937500000e+04
-1.096734082031250000e+04
-1.096727636718750000e+04
-1.096698437500000000e+04
-1.096677148437500000e+04
-1.096591113281250000e+04
-1.096480273437500000e+04
-1.096408496093750000e+04
-1.096600292968750000e+04
-1.096714453125000000e+04
-1.096710937500000000e+04
-1.096706054687500000e+04
-1.096620605468750000e+04
-1.096512792968750000e+04
-1.096484472656250000e+04
-1.096470703125000000e+04
-1.096444531250000000e+04
-1.096455273437500000e+04
-1.096478515625000000e+04
-1.096543261718750000e+04
-1.096568554687500000e+04
-1.096604785156250000e+04
-1.096653808593750000e+04
-1.096667480468750000e+04
-1.096677929687500000e+04
-1.096685156250000000e+04
-1.096689941406250000e+04
-1.096683984375000000e+04
-1.096661328125000000e+04
-1.096630664062500000e+04
-1.096627441406250000e+04
-1.096613867187500000e+04
-1.096598046875000000e+04
-1.096596191406250000e+04
-1.096593750000000000e+04
-1.096591210937500000e+04
-1.096591601562500000e+04
-1.096592187500000000e+04
-1.096598535156250000e+04
-1.096592187500000000e+04
-1.096573144531250000e+04
-1.096561035156250000e+04
-1.096552441406250000e+04
-1.096519335937500000e+04
-1.096515039062500000e+04
-1.096490136718750000e+04
-1.096488183593750000e+04
-1.096488476562500000e+04
-1.096489062500000000e+04
-1.096492773437500000e+04
-1.096497070312500000e+04
-1.096515527343750000e+04
-1.096529980468750000e+04
-1.096537011718750000e+04
-1.096542187500000000e+04
-1.096547460937500000e+04
-1.096549121093750000e+04
-1.096548925781250000e+04
-1.096548437500000000e+04
-1.096543945312500000e+04
-1.096537109375000000e+04
-1.096521191406250000e+04
-1.096491503906250000e+04
-1.096438964843750000e+04
-1.096400390625000000e+04
-1.096384667968750000e+04
-1.096378710937500000e+04
-1.096377148437500000e+04
-1.096376855468750000e+04
-1.096450097656250000e+04
-1.096495019531250000e+04
-1.096518261718750000e+04
-1.096572656250000000e+04
-1.096607226562500000e+04
-1.096631738281250000e+04
-1.096642871093750000e+04
-1.096647363281250000e+04
-1.096648925781250000e+04
-1.096651855468750000e+04
-1.096652636718750000e+04
-1.096654785156250000e+04
-1.096655078125000000e+04
-1.096654980468750000e+04
-1.096645117187500000e+04
-1.096616503906250000e+04
-1.096559375000000000e+04
-1.096529296875000000e+04
-1.096458300781250000e+04
-1.096407812500000000e+04
-1.096385546875000000e+04
-1.096381445312500000e+04
-1.096414941406250000e+04
-1.096423730468750000e+04
-1.096527441406250000e+04
-1.096577148437500000e+04
-1.096628906250000000e+04
-1.096651464843750000e+04
-1.096672167968750000e+04
-1.096666601562500000e+04
-1.096646191406250000e+04
-1.096627636718750000e+04
-1.096621289062500000e+04
-1.096593261718750000e+04
-1.096586230468750000e+04
-1.096559179687500000e+04
-1.096522460937500000e+04
-1.096511425781250000e+04
-1.096496875000000000e+04
-1.096460058593750000e+04
-1.096448535156250000e+04
-1.096430175781250000e+04
-1.096426269531250000e+04
-1.096411035156250000e+04
-1.096385253906250000e+04
-1.096381835937500000e+04
-1.096367285156250000e+04
-1.096370800781250000e+04
-1.096381542968750000e+04
-1.096386914062500000e+04
-1.096392480468750000e+04
-1.096414843750000000e+04
-1.096423144531250000e+04
