-1.925396546721458435e-02 -3.188168193446472287e-05 -8.067607879638671875e-03 7.363125681877136230e-03 1.178542338311672211e-02 2.096991986036300659e-02 -4.281555488705635071e-02 3.707531094551086426e-02 -1.517053879797458649e-02 -2.290493063628673553e-02 1.122595183551311493e-02 -4.663981380872428417e-04 -1.233049761503934860e-02 2.350759878754615784e-02 -1.875774189829826355e-02 4.111194517463445663e-03 1.432721689343452454e-02 -5.680081434547901154e-03 2.235111594200134277e-02 2.888583205640316010e-02 9.460631757974624634e-03 2.031017467379570007e-02 -9.176268242299556732e-03 8.146284148097038269e-03 -3.687990596517920494e-03 -4.514805972576141357e-02 1.608173735439777374e-02 5.933592561632394791e-03 -2.442291006445884705e-02 8.806543424725532532e-03 -1.337487995624542236e-02 1.134936418384313583e-02 -2.001912519335746765e-02 -1.483475230634212494e-02 -3.965669777244329453e-03 1.573618128895759583e-02 2.418894087895750999e-03 7.307075895369052887e-03 -2.673433395102620125e-03 -1.078526489436626434e-02 -2.760439366102218628e-02 -3.132118145003914833e-03 -3.477622941136360168e-02 -2.448564581573009491e-02 -9.314078837633132935e-03 -8.605482988059520721e-03 2.593986131250858307e-02 -3.005208447575569153e-02 6.632418371737003326e-03 -1.042582374066114426e-02 -1.550529617816209793e-02 -1.399811543524265289e-02 2.029628958553075790e-03 1.559528429061174393e-02 -4.499430768191814423e-03 -1.417963486164808273e-02 -6.783084943890571594e-03 -1.324838120490312576e-02 5.872914101928472519e-03 -2.943604812026023865e-02 4.807963501662015915e-03 4.260318353772163391e-03 -3.632454900071024895e-03 -2.697293087840080261e-02 5.888340994715690613e-03 9.605642408132553101e-04 5.036225914955139160e-02 3.457619808614253998e-03 -1.107682753354310989e-02 1.524098683148622513e-02 -1.129897125065326691e-02 7.140982430428266525e-03 -1.203584950417280197e-02 -1.234078221023082733e-02 -2.182866819202899933e-02 -5.906852893531322479e-03 1.827231794595718384e-02 -9.534679353237152100e-03 -5.784982815384864807e-03 -2.208783477544784546e-02 -3.263758728280663490e-03 3.237636387348175049e-02 -4.444923717528581619e-03 8.056295104324817657e-03 2.849759534001350403e-02 9.806188754737377167e-04 1.102849096059799194e-02 8.558688685297966003e-03 -1.881173439323902130e-02 -2.430669777095317841e-02 -2.929515205323696136e-03 -4.858870990574359894e-03 -5.644600372761487961e-03 -4.433199390769004822e-02 -9.200436063110828400e-03 -8.735066279768943787e-03 -2.066138666123151779e-03 2.510013990104198456e-02 6.141851656138896942e-03 -2.301445975899696350e-02 -1.109379716217517853e-02 2.888377523049712181e-03 2.069069817662239075e-02 1.465477515012025833e-02 -1.757400669157505035e-02 4.625312238931655884e-02 -2.744292840361595154e-02 1.675073802471160889e-02 3.824773477390408516e-03 -3.161737322807312012e-02 -2.828727941960096359e-03 -7.704568561166524887e-03 5.508332047611474991e-03 2.636923687532544136e-03 2.539581619203090668e-02 6.272463593631982803e-03 1.186821260489523411e-03 3.358375281095504761e-03 4.701519850641489029e-03 1.837978884577751160e-02 9.471944533288478851e-03 3.043929301202297211e-02 5.077929235994815826e-03 2.359810099005699158e-02 1.798846758902072906e-02 2.167902886867523193e-02 2.614297904074192047e-03 1.837361976504325867e-02 5.125237628817558289e-03 3.233831003308296204e-02 1.151905767619609833e-02 -3.625255776569247246e-04 -4.404299892485141754e-03 6.845819763839244843e-03 3.190688043832778931e-02 -1.198854111135005951e-02 8.294379222206771374e-04 4.243143275380134583e-02 -6.529574282467365265e-03 -2.772369422018527985e-02 5.008509382605552673e-03 2.448821626603603363e-02 -7.691198494285345078e-03 -6.733205635100603104e-03 -8.820941671729087830e-03 -1.551866531372070312e-02 6.067804060876369476e-03 1.873820088803768158e-03 -4.168272949755191803e-03 7.947280071675777435e-03 -1.420843135565519333e-02 1.042171008884906769e-02 -2.644122764468193054e-02 -1.341601740568876266e-02 -2.234031632542610168e-02 -2.080639638006687164e-02 -7.974534295499324799e-03 8.826083503663539886e-03 7.754447869956493378e-04 1.050398591905832291e-02 1.735700480639934540e-02 3.176392614841461182e-02
-2.353809177875518799e-01 3.274711593985557556e-02 -2.481166087090969086e-02 1.854459792375564575e-01 2.059284150600433350e-01 3.405858278274536133e-01 -5.610821247100830078e-01 6.193294525146484375e-01 -2.810766100883483887e-01 -3.264097869396209717e-01 2.336006760597229004e-01 4.750062152743339539e-02 -1.251777708530426025e-01 3.559445738792419434e-01 -3.091191351413726807e-01 9.056454524397850037e-03 1.316152960062026978e-01 -6.357927620410919189e-02 3.329944014549255371e-01 3.721481859683990479e-01 1.125870719552040100e-01 2.012135237455368042e-01 -8.705601841211318970e-02 7.247015088796615601e-02 -8.097741752862930298e-02 -6.457099914550781250e-01 2.290801703929901123e-01 7.752391044050455093e-03 -3.032801449298858643e-01 1.357270032167434692e-01 -1.587682068347930908e-01 1.091937348246574402e-01 -2.697035968303680420e-01 -1.544724106788635254e-01 -7.126841694116592407e-02 2.264093011617660522e-01 3.621553257107734680e-02 1.069111078977584839e-01 -2.430104091763496399e-02 -1.830358207225799561e-01 -3.136514723300933838e-01 -9.276901185512542725e-02 -4.758808910846710205e-01 -2.989848554134368896e-01 -1.182424724102020264e-01 -1.268788129091262817e-01 2.671978175640106201e-01 -3.387202322483062744e-01 2.752674743533134460e-02 -1.211565583944320679e-01 -2.349731326103210449e-01 -1.739166378974914551e-01 2.022789791226387024e-02 2.445037066936492920e-01 -6.450229883193969727e-02 -1.746087670326232910e-01 -5.768630281090736389e-02 -1.580004692077636719e-01 5.172957107424736023e-02 -3.524900376796722412e-01 3.175723925232887268e-02 3.432011604309082031e-02 3.990866709500551224e-03 -3.670465946197509766e-01 9.351360052824020386e-02 4.841336235404014587e-02 6.786103248596191406e-01 7.641216367483139038e-02 -9.389566630125045776e-02 2.775948345661163330e-01 -1.455347388982772827e-01 8.477441966533660889e-02 -1.192292645573616028e-01 -1.124893724918365479e-01 -2.083015441894531250e-01 -1.135759204626083374e-01 2.280188202857971191e-01 -1.053154766559600830e-01 -1.103841513395309448e-01 -2.908360064029693604e-01 -7.247991859912872314e-02 3.995479345321655273e-01 -7.567014545202255249e-02 6.222224608063697815e-02 3.702491819858551025e-01 -9.701698273420333862e-02 1.612848043441772461e-01 1.006864681839942932e-01 -3.093582391738891602e-01 -3.442496657371520996e-01 -4.915075376629829407e-02 -4.903248324990272522e-02 -6.390323489904403687e-02 -5.291474461555480957e-01 -1.549480557441711426e-01 -1.036082655191421509e-01 -1.299178507179021835e-02 3.000940382480621338e-01 1.003599315881729126e-01 -2.614776194095611572e-01 -7.856778055429458618e-02 6.943161785602569580e-02 3.246876895427703857e-01 2.016999721527099609e-01 -2.983544468879699707e-01 6.472547054290771484e-01 -4.518642127513885498e-01 3.200190663337707520e-01 -1.132365316152572632e-02 -4.194996953010559082e-01 -1.166936382651329041e-01 -8.103963732719421387e-02 1.008566692471504211e-01 5.150691419839859009e-02 3.389074206352233887e-01 7.467924058437347412e-02 -2.019807323813438416e-02 1.371945887804031372e-01 1.532686129212379456e-02 2.461044788360595703e-01 1.364633738994598389e-01 4.379674196243286133e-01 7.584755122661590576e-02 2.706230282783508301e-01 2.356117963790893555e-01 2.735597491264343262e-01 2.839475125074386597e-02 1.823231130838394165e-01 7.194564491510391235e-02 4.273914396762847900e-01 1.737160831689834595e-01 -1.044382154941558838e-02 -3.627672418951988220e-02 1.032848209142684937e-01 3.891164362430572510e-01 -9.100523591041564941e-02 -1.094158738851547241e-02 4.642975628376007080e-01 -2.062318027019500732e-01 -3.281236886978149414e-01 2.953374944627285004e-02 2.687204182147979736e-01 -1.184059977531433105e-01 -1.309493780136108398e-01 -1.135244965553283691e-01 -1.997839808464050293e-01 6.695101410150527954e-02 4.504572972655296326e-02 -1.866466738283634186e-02 1.139081045985221863e-01 -1.965685635805130005e-01 7.320857048034667969e-02 -3.521455228328704834e-01 -2.646215558052062988e-01 -2.917148172855377197e-01 -3.374598920345306396e-01 -8.255401253700256348e-02 9.614486992359161377e-02 -1.523173041641712189e-02 1.803099364042282104e-01 2.336186766624450684e-01 3.988907337188720703e-01
-2.662768363952636719e-01 4.459630325436592102e-02 -1.280769426375627518e-02 2.355274707078933716e-01 2.463261038064956665e-01 4.057345092296600342e-01 -6.421099305152893066e-01 7.424950599670410156e-01 -3.480317592620849609e-01 -3.812226355075836182e-01 2.860445082187652588e-01 6.537750363349914551e-02 -1.388904899358749390e-01 4.177117347717285156e-01 -3.645459413528442383e-01 4.750370513647794724e-03 1.399760097265243530e-01 -6.728783249855041504e-02 3.903706371784210205e-01 4.265352487564086914e-01 1.274331361055374146e-01 2.199219018220901489e-01 -9.746178984642028809e-02 7.528653740882873535e-02 -1.018604338169097900e-01 -7.517854571342468262e-01 2.723250985145568848e-01 -5.265105515718460083e-03 -3.509941697120666504e-01 1.616324186325073242e-01 -1.811398863792419434e-01 1.208989396691322327e-01 -3.163033127784729004e-01 -1.698095500469207764e-01 -8.487829566001892090e-02 2.635550796985626221e-01 4.659816250205039978e-02 1.255459487438201904e-01 -2.536444924771785736e-02 -2.191911935806274414e-01 -3.512955009937286377e-01 -1.133074983954429626e-01 -5.533826947212219238e-01 -3.415957689285278320e-01 -1.381685286760330200e-01 -1.530253887176513672e-01 3.006468415260314941e-01 -3.793673217296600342e-01 2.088147401809692383e-02 -1.359645724296569824e-01 -2.800003588199615479e-01 -1.959802955389022827e-01 1.874025911092758179e-02 2.880931496620178223e-01 -7.698809355497360229e-02 -1.964703500270843506e-01 -6.199341639876365662e-02 -1.794177591800689697e-01 5.638223886489868164e-02 -4.016973674297332764e-01 3.027988411486148834e-02 3.805593028664588928e-02 1.691220328211784363e-02 -4.234303832054138184e-01 1.131223812699317932e-01 6.216362491250038147e-02 7.870311737060546875e-01 9.027247130870819092e-02 -9.896691143512725830e-02 3.349391818046569824e-01 -1.710668206214904785e-01 9.409364312887191772e-02 -1.345535516738891602e-01 -1.223804056644439697e-01 -2.258837670087814331e-01 -1.345232129096984863e-01 2.573556303977966309e-01 -1.187628656625747681e-01 -1.339287757873535156e-01 -3.347628116607666016e-01 -8.822638541460037231e-02 4.545304477214813232e-01 -8.984206616878509521e-02 6.500520557165145874e-02 4.212644994258880615e-01 -1.317695677280426025e-01 1.926939189434051514e-01 1.120322272181510925e-01 -3.647464811801910400e-01 -3.972853422164916992e-01 -6.101022660732269287e-02 -5.440454557538032532e-02 -7.305327802896499634e-02 -6.018562316894531250e-01 -1.873511672019958496e-01 -1.229337081313133240e-01 -9.595871903002262115e-03 3.398119211196899414e-01 1.188636496663093567e-01 -2.914026975631713867e-01 -8.144330233335494995e-02 8.069407939910888672e-02 3.805994093418121338e-01 2.339925169944763184e-01 -3.554082512855529785e-01 7.524020075798034668e-01 -5.411951541900634766e-01 3.934307396411895752e-01 -2.243904769420623779e-02 -4.861648082733154297e-01 -1.501658111810684204e-01 -8.311914652585983276e-02 1.192133203148841858e-01 6.071403622627258301e-02 3.878540396690368652e-01 8.707864582538604736e-02 -2.923293039202690125e-02 1.762712448835372925e-01 9.534679353237152100e-03 2.837778329849243164e-01 1.623543798923492432e-01 5.101269483566284180e-01 9.120577573776245117e-02 3.051154017448425293e-01 2.739289402961730957e-01 3.138252794742584229e-01 3.911368176341056824e-02 2.009178400039672852e-01 8.658396452665328979e-02 4.986999630928039551e-01 2.060605585575103760e-01 -1.104648876935243607e-02 -4.074633121490478516e-02 1.226997375488281250e-01 4.428175389766693115e-01 -9.815958142280578613e-02 -1.613624393939971924e-02 5.183858871459960938e-01 -2.576847076416015625e-01 -3.702810406684875488e-01 2.880252897739410400e-02 2.963613271713256836e-01 -1.392422169446945190e-01 -1.577048003673553467e-01 -1.305498331785202026e-01 -2.250358164310455322e-01 7.491835206747055054e-02 5.507611855864524841e-02 -1.545490231364965439e-02 1.344003081321716309e-01 -2.252924144268035889e-01 6.954320520162582397e-02 -4.111286997795104980e-01 -3.257572650909423828e-01 -3.343663513660430908e-01 -3.977198600769042969e-01 -8.963534981012344360e-02 1.110624074935913086e-01 -2.520144172012805939e-02 2.135481387376785278e-01 2.700702548027038574e-01 4.569349586963653564e-01
-3.365553617477416992e-01 8.613608032464981079e-02 3.287721425294876099e-02 3.781491518020629883e-01 3.511818647384643555e-01 5.819959640502929688e-01 -8.235763311386108398e-01 1.069305896759033203e+00 -5.475000143051147461e-01 -5.227171182632446289e-01 4.236653745174407959e-01 1.223382428288459778e-01 -1.691184341907501221e-01 5.794891715049743652e-01 -5.040262341499328613e-01 -1.220194250345230103e-02 1.444929242134094238e-01 -8.660967648029327393e-02 5.350250005722045898e-01 5.589553117752075195e-01 1.670214533805847168e-01 2.458134293556213379e-01 -1.228925734758377075e-01 7.591851055622100830e-02 -1.652576625347137451e-01 -1.018601179122924805e+00 3.754571974277496338e-01 -4.743840172886848450e-02 -4.594196677207946777e-01 2.287778109312057495e-01 -2.255299836397171021e-01 1.364777684211730957e-01 -4.314866960048675537e-01 -2.017477899789810181e-01 -1.236325353384017944e-01 3.612081408500671387e-01 7.908713817596435547e-02 1.763447821140289307e-01 -1.865129731595516205e-02 -3.148475587368011475e-01 -4.336525797843933105e-01 -1.708323359489440918e-01 -7.401599884033203125e-01 -4.442635178565979004e-01 -1.901541799306869507e-01 -2.264319360256195068e-01 3.748169839382171631e-01 -4.647896587848663330e-01 -1.184198819100856781e-02 -1.758634746074676514e-01 -3.947682380676269531e-01 -2.406912744045257568e-01 2.628336101770401001e-02 4.086943566799163818e-01 -1.041821390390396118e-01 -2.471318840980529785e-01 -6.457480043172836304e-02 -2.244367599487304688e-01 6.631647050380706787e-02 -5.155103206634521484e-01 1.691220328211784363e-02 4.298267886042594910e-02 5.986917018890380859e-02 -5.603951215744018555e-01 1.583285480737686157e-01 8.974230289459228516e-02 1.041007876396179199e+00 1.289747655391693115e-01 -9.543935954570770264e-02 4.896378517150878906e-01 -2.207518517971038818e-01 1.164581254124641418e-01 -1.660125404596328735e-01 -1.364073157310485840e-01 -2.574358284473419189e-01 -1.885878592729568481e-01 3.199023306369781494e-01 -1.507607549428939819e-01 -1.902853101491928101e-01 -4.433158040046691895e-01 -1.285104304552078247e-01 5.786638259887695312e-01 -1.237137839198112488e-01 6.888294219970703125e-02 5.466536283493041992e-01 -2.359707206487655640e-01 2.783353030681610107e-01 1.404100060462951660e-01 -5.155180692672729492e-01 -5.499024391174316406e-01 -9.034754335880279541e-02 -6.082150712609291077e-02 -8.964923024177551270e-02 -7.679135203361511230e-01 -2.720294296741485596e-01 -1.672703325748443604e-01 -1.255212700925767422e-03 4.310171902179718018e-01 1.607556641101837158e-01 -3.643392324447631836e-01 -8.108231425285339355e-02 1.081030666828155518e-01 5.233882069587707520e-01 3.012088835239410400e-01 -5.078824162483215332e-01 1.004570245742797852e+00 -7.853934168815612793e-01 6.069722175598144531e-01 -5.629842355847358704e-02 -6.494396328926086426e-01 -2.485094815492630005e-01 -8.926870673894882202e-02 1.719214618206024170e-01 8.453993499279022217e-02 5.077723264694213867e-01 1.202361062169075012e-01 -6.229732185602188110e-02 2.792609035968780518e-01 -7.836722768843173981e-03 3.670394122600555420e-01 2.144428789615631104e-01 6.819877624511718750e-01 1.310779303312301636e-01 3.859323859214782715e-01 3.678174316883087158e-01 4.176911711692810059e-01 5.719368159770965576e-02 2.336191982030868530e-01 1.117468401789665222e-01 6.643437743186950684e-01 2.956696748733520508e-01 -1.268993783742189407e-02 -4.856557026505470276e-02 1.709516346454620361e-01 5.655584335327148438e-01 -9.860747307538986206e-02 -3.218764439225196838e-02 6.203748583793640137e-01 -3.900682628154754639e-01 -4.718823134899139404e-01 2.460803091526031494e-02 3.519161641597747803e-01 -1.818063259124755859e-01 -2.253788113594055176e-01 -1.631072014570236206e-01 -2.824629545211791992e-01 9.306880086660385132e-02 9.202647209167480469e-02 -8.793173474259674549e-04 1.873053908348083496e-01 -2.879327237606048584e-01 4.490020498633384705e-02 -5.527296066284179688e-01 -4.977399110794067383e-01 -4.342243969440460205e-01 -5.609206557273864746e-01 -1.074731498956680298e-01 1.321865916252136230e-01 -5.040134117007255554e-02 2.992435097694396973e-01 3.615110218524932861e-01 6.034796237945556641e-01
-4.134061634540557861e-01 1.415582597255706787e-01 1.105877831578254700e-01 5.818756818771362305e-01 4.653645753860473633e-01 8.011933565139770508e-01 -9.732819199562072754e-01 1.465662121772766113e+00 -8.238298296928405762e-01 -6.797673106193542480e-01 5.868420004844665527e-01 2.118661105632781982e-01 -1.935089528560638428e-01 7.791435718536376953e-01 -6.630855202674865723e-01 -3.967366740107536316e-02 1.297759264707565308e-01 -1.158580332994461060e-01 6.947280764579772949e-01 7.039064168930053711e-01 2.097531855106353760e-01 2.465425878763198853e-01 -1.541669517755508423e-01 6.751769036054611206e-02 -2.587018609046936035e-01 -1.301712155342102051e+00 5.040571093559265137e-01 -1.091335713863372803e-01 -5.895966887474060059e-01 3.178572952747344971e-01 -2.656875252723693848e-01 1.416837424039840698e-01 -5.687183141708374023e-01 -2.286559343338012695e-01 -1.647676229476928711e-01 4.766907989978790283e-01 1.380877941846847534e-01 2.377159893512725830e-01 -4.880982451140880585e-03 -4.300787448883056641e-01 -4.970534145832061768e-01 -2.436650097370147705e-01 -9.549324512481689453e-01 -5.518883466720581055e-01 -2.525126934051513672e-01 -3.266854286193847656e-01 4.487316012382507324e-01 -5.385088324546813965e-01 -6.499132513999938965e-02 -2.107065469026565552e-01 -5.353829264640808105e-01 -2.771258652210235596e-01 3.617902472615242004e-02 5.652899742126464844e-01 -1.288040578365325928e-01 -2.879949510097503662e-01 -5.491876974701881409e-02 -2.717861831188201904e-01 7.879403233528137207e-02 -6.527768969535827637e-01 -6.234925705939531326e-03 4.213318601250648499e-02 1.286045312881469727e-01 -7.126029133796691895e-01 1.960368603467941284e-01 1.238634213805198669e-01 1.326841592788696289e+00 1.650895178318023682e-01 -7.290878146886825562e-02 6.913933753967285156e-01 -2.754906415939331055e-01 1.338300406932830811e-01 -2.037979960441589355e-01 -1.443088352680206299e-01 -2.734661400318145752e-01 -2.515408098697662354e-01 3.810298144817352295e-01 -1.811897754669189453e-01 -2.608672380447387695e-01 -5.695045590400695801e-01 -1.772379875183105469e-01 7.025375366210937500e-01 -1.494608074426651001e-01 5.834759026765823364e-02 6.833802461624145508e-01 -3.793051242828369141e-01 3.834132254123687744e-01 1.635370850563049316e-01 -6.900116205215454102e-01 -7.281652688980102539e-01 -1.226755678653717041e-01 -6.003937870264053345e-02 -1.039481684565544128e-01 -9.406921863555908203e-01 -3.792135715484619141e-01 -2.253813743591308594e-01 1.103260461241006851e-02 5.195264220237731934e-01 2.083020508289337158e-01 -4.364134371280670166e-01 -6.927375495433807373e-02 1.363656669855117798e-01 6.834126710891723633e-01 3.604980111122131348e-01 -6.867684721946716309e-01 1.260950803756713867e+00 -1.097486734390258789e+00 8.874481916427612305e-01 -1.118995621800422668e-01 -8.345770835876464844e-01 -3.836991190910339355e-01 -8.926613628864288330e-02 2.407509237527847290e-01 1.053561046719551086e-01 6.381781697273254395e-01 1.559867858886718750e-01 -1.129891946911811829e-01 4.116958677768707275e-01 -3.604532778263092041e-02 4.540285766124725342e-01 2.656165659427642822e-01 8.732593059539794922e-01 1.883024722337722778e-01 4.647850394248962402e-01 4.726793467998504639e-01 5.296344161033630371e-01 7.557810097932815552e-02 2.550596296787261963e-01 1.448518484830856323e-01 8.514795303344726562e-01 4.078109264373779297e-01 -1.379808317869901657e-02 -5.122923478484153748e-02 2.281458228826522827e-01 6.938467025756835938e-01 -8.640707284212112427e-02 -5.487711727619171143e-02 6.899082660675048828e-01 -5.497049689292907715e-01 -5.688468217849731445e-01 1.229090243577957153e-02 3.872606158256530762e-01 -2.254029810428619385e-01 -2.975784838199615479e-01 -1.900600790977478027e-01 -3.356477618217468262e-01 1.052038967609405518e-01 1.389912813901901245e-01 3.513309732079505920e-02 2.462947368621826172e-01 -3.380748927593231201e-01 -8.478470146656036377e-03 -7.025745511054992676e-01 -7.337923645973205566e-01 -5.277749896049499512e-01 -7.528072595596313477e-01 -1.241493225097656250e-01 1.510204374790191650e-01 -9.464745968580245972e-02 4.056496620178222656e-01 4.661297202110290527e-01 7.703097462654113770e-01
-5.501322746276855469e-01 3.300592303276062012e-01 3.593358695507049561e-01 9.638686180114746094e-01 3.497801125049591064e-01 1.223979473114013672e+00 -8.303399085998535156e-01 1.662228584289550781e+00 -1.040540456771850586e+00 -1.038153409957885742e+00 8.934162855148315430e-01 4.867036938667297363e-01 -1.254569888114929199e-01 1.117625713348388672e+00 -8.770419359207153320e-01 -1.616545319557189941e-01 -2.063156105577945709e-02 -2.906190156936645508e-01 9.371573925018310547e-01 8.780904412269592285e-01 2.486046105623245239e-01 1.067223846912384033e-01 -2.245817631483078003e-01 9.201465174555778503e-03 -3.238952755928039551e-01 -1.551288604736328125e+00 7.642275691032409668e-01 -2.619933784008026123e-01 -9.153817296028137207e-01 5.667698979377746582e-01 -2.635951638221740723e-01 4.628294706344604492e-02 -9.498170018196105957e-01 -2.279591709375381470e-01 -2.885621190071105957e-01 8.269820213317871094e-01 3.897180855274200439e-01 3.874555230140686035e-01 1.900302432477474213e-02 -5.461367964744567871e-01 -5.550297498703002930e-01 -3.460643291473388672e-01 -1.354091644287109375e+00 -6.846894621849060059e-01 -3.627430796623229980e-01 -5.666917562484741211e-01 5.606769323348999023e-01 -5.271404981613159180e-01 -2.079230695962905884e-01 -2.004468142986297607e-01 -8.456549048423767090e-01 -2.703808248043060303e-01 1.343560963869094849e-01 9.640058875083923340e-01 -1.514426171779632568e-01 -2.976016104221343994e-01 -2.623913809657096863e-02 -3.294030725955963135e-01 1.592443734407424927e-01 -1.019380211830139160e+00 -1.381885856389999390e-01 -5.812184885144233704e-02 4.139286279678344727e-01 -1.090189456939697266e+00 1.613465100526809692e-01 1.779008060693740845e-01 1.865564346313476562e+00 1.362227201461791992e-01 1.774164102971553802e-02 1.195948243141174316e+00 -3.494129478931427002e-01 1.467215567827224731e-01 -3.357141017913818359e-01 -1.214985176920890808e-01 -2.510209381580352783e-01 -3.275976479053497314e-01 4.776385128498077393e-01 -2.333867698907852173e-01 -3.437117934226989746e-01 -7.123185396194458008e-01 -2.089227139949798584e-01 9.153046011924743652e-01 -3.017806820571422577e-02 -1.194339245557785034e-01 8.471363782882690430e-01 -6.338937282562255859e-01 5.376228690147399902e-01 8.242443203926086426e-02 -9.810862541198730469e-01 -1.083649158477783203e+00 -2.416194379329681396e-01 3.728768229484558105e-02 -1.814252883195877075e-01 -1.297828674316406250e+00 -6.958444714546203613e-01 -4.917970597743988037e-01 3.180969040840864182e-03 6.125782132148742676e-01 3.418847620487213135e-01 -5.811501145362854004e-01 -2.803428284823894501e-02 1.584252119064331055e-01 8.488646745681762695e-01 3.592206835746765137e-01 -8.353679180145263672e-01 1.320516586303710938e+00 -1.524505972862243652e+00 1.010754227638244629e+00 -2.157968133687973022e-01 -1.230819106101989746e+00 -7.357572317123413086e-01 -5.710163339972496033e-02 4.719131588935852051e-01 9.505626559257507324e-02 9.302318692207336426e-01 2.214820384979248047e-01 -2.492664158344268799e-01 7.102035284042358398e-01 -3.269209340214729309e-02 5.938307642936706543e-01 2.794912755489349365e-01 1.189738988876342773e+00 3.538902699947357178e-01 5.222378969192504883e-01 6.004215478897094727e-01 6.243209838867187500e-01 1.318945139646530151e-01 2.007584422826766968e-01 2.142747193574905396e-01 1.270081877708435059e+00 7.329763174057006836e-01 -3.285664319992065430e-02 9.816472418606281281e-03 4.177842438220977783e-01 9.841777682304382324e-01 -4.486780986189842224e-02 -1.366227716207504272e-01 6.153792142868041992e-01 -8.446562886238098145e-01 -7.033736705780029297e-01 -6.543818116188049316e-02 3.581279516220092773e-01 -2.363579273223876953e-01 -3.495774865150451660e-01 -2.505766451358795166e-01 -3.474146723747253418e-01 5.642800405621528625e-02 2.624247968196868896e-01 2.168144583702087402e-01 3.644585311412811279e-01 -2.398705780506134033e-01 -9.706377983093261719e-02 -9.381992220878601074e-01 -1.232734560966491699e+00 -4.099670648574829102e-01 -9.818539619445800781e-01 -8.501198887825012207e-02 7.948566228151321411e-02 -2.286178767681121826e-01 5.840724110603332520e-01 6.346881985664367676e-01 1.096676349639892578e+00
-5.452935099601745605e-01 3.407776355743408203e-01 3.492905497550964355e-01 7.989847660064697266e-01 1.223474964499473572e-01 1.138407945632934570e+00 -7.561882138252258301e-01 1.217361450195312500e+00 -7.065371274948120117e-01 -1.033838152885437012e+00 8.583448529243469238e-01 4.552251696586608887e-01 -4.924383014440536499e-02 9.944359660148620605e-01 -7.688277959823608398e-01 -1.904056370258331299e-01 -7.820370793342590332e-02 -3.826028108596801758e-01 8.806533217430114746e-01 7.679844498634338379e-01 2.115431874990463257e-01 4.878051578998565674e-02 -2.187602669000625610e-01 9.071880951523780823e-03 -1.920614242553710938e-01 -1.370753407478332520e+00 7.446774244308471680e-01 -2.399780452251434326e-01 -9.281333684921264648e-01 5.753512382507324219e-01 -2.278357595205307007e-01 1.410250179469585419e-02 -9.887347817420959473e-01 -1.817656904458999634e-01 -3.212608993053436279e-01 8.695589900016784668e-01 4.273034930229187012e-01 3.863036632537841797e-01 -4.488683864474296570e-02 -4.168653190135955811e-01 -5.839459300041198730e-01 -2.967428565025329590e-01 -1.306055188179016113e+00 -5.969551801681518555e-01 -3.524139523506164551e-01 -5.462267994880676270e-01 5.448502302169799805e-01 -4.669200778007507324e-01 -1.762414276599884033e-01 -1.449294984340667725e-01 -8.180490136146545410e-01 -2.571036517620086670e-01 1.661719530820846558e-01 9.392847418785095215e-01 -1.342835873365402222e-01 -2.679572999477386475e-01 -4.661976173520088196e-02 -3.340783715248107910e-01 1.935542076826095581e-01 -1.068781971931457520e+00 -1.824043542146682739e-01 -1.139137670397758484e-01 4.522848427295684814e-01 -1.133471965789794922e+00 9.503209590911865234e-02 1.700142174959182739e-01 1.825582623481750488e+00 8.871901035308837891e-02 -1.440846361219882965e-02 1.178888916969299316e+00 -3.477499485015869141e-01 1.650015860795974731e-01 -3.775927424430847168e-01 -1.287058293819427490e-01 -2.573252916336059570e-01 -2.832435369491577148e-01 4.881388843059539795e-01 -2.379206568002700806e-01 -2.966780662536621094e-01 -5.926820039749145508e-01 -1.450009793043136597e-01 9.302473068237304688e-01 7.927483320236206055e-02 -2.084141522645950317e-01 7.637750506401062012e-01 -4.990336894989013672e-01 4.448250532150268555e-01 1.740122772753238678e-02 -9.019569754600524902e-01 -1.001932263374328613e+00 -2.785739004611968994e-01 9.714245796203613281e-02 -2.269934564828872681e-01 -1.309467077255249023e+00 -7.197300195693969727e-01 -5.735144615173339844e-01 -3.046294674277305603e-02 5.613418221473693848e-01 3.913445472717285156e-01 -5.897185802459716797e-01 -3.584169596433639526e-02 1.574862450361251831e-01 7.412511706352233887e-01 3.148567974567413330e-01 -6.629698276519775391e-01 1.169925093650817871e+00 -1.332885146141052246e+00 6.697518825531005859e-01 -1.752273738384246826e-01 -1.233710050582885742e+00 -6.914458274841308594e-01 -6.242124736309051514e-02 5.035135746002197266e-01 6.053251400589942932e-02 9.506130218505859375e-01 1.952691376209259033e-01 -2.170206606388092041e-01 6.695055365562438965e-01 2.215416915714740753e-02 6.120316386222839355e-01 2.188219875097274780e-01 1.130068302154541016e+00 3.633005023002624512e-01 4.729482829570770264e-01 5.221664309501647949e-01 5.029726028442382812e-01 1.358612179756164551e-01 1.578333526849746704e-01 2.235260754823684692e-01 1.276971459388732910e+00 7.646055221557617188e-01 -3.143996745347976685e-02 5.690160393714904785e-02 4.687378704547882080e-01 1.036861658096313477e+00 -5.506480857729911804e-02 -1.394607573747634888e-01 5.215709209442138672e-01 -7.830613851547241211e-01 -6.776199340820312500e-01 -1.128950938582420349e-01 3.414394557476043701e-01 -1.745275259017944336e-01 -2.823606431484222412e-01 -2.741310298442840576e-01 -3.016485273838043213e-01 1.726135984063148499e-02 2.638162970542907715e-01 2.824943363666534424e-01 3.574003279209136963e-01 -1.655605435371398926e-01 -1.858856342732906342e-02 -8.817192912101745605e-01 -1.110894083976745605e+00 -2.368268966674804688e-01 -8.052639365196228027e-01 -3.343051299452781677e-02 1.233975309878587723e-02 -2.366032153367996216e-01 5.554668307304382324e-01 5.725836753845214844e-01 1.089978694915771484e+00