7.461741447448730469e+00 -2.403252199292182922e-02 -5.943778529763221741e-02 -2.403252199292182922e-02 7.592106342315673828e+00 4.796371236443519592e-02 -5.943778529763221741e-02 4.796371236443519592e-02 -8.154238700866699219e+00
1.436586761474609375e+01 -4.014231860637664795e-01 -4.899228215217590332e-01 -4.014231860637664795e-01 1.446965885162353516e+01 8.193905949592590332e-01 -4.899228215217590332e-01 8.193905949592590332e-01 -4.141113758087158203e+00
1.631047439575195312e+01 -4.545182585716247559e-01 -5.129868984222412109e-01 -4.545182585716247559e-01 1.629592704772949219e+01 9.663504362106323242e-01 -5.129868984222412109e-01 9.663504362106323242e-01 -2.755230188369750977e+00
2.161155319213867188e+01 -5.420118570327758789e-01 -4.930942654609680176e-01 -5.420118570327758789e-01 2.115159988403320312e+01 1.427461624145507812e+00 -4.930942654609680176e-01 1.427461624145507812e+00 1.138718962669372559e+00
2.789177322387695312e+01 -6.131807565689086914e-01 -1.334892213344573975e-01 -6.131807565689086914e-01 2.668196296691894531e+01 2.054678440093994141e+00 -1.334892213344573975e-01 2.054678440093994141e+00 5.939902305603027344e+00
3.516939163208007812e+01 -1.211186051368713379e+00 1.276860237121582031e+00 -1.211186051368713379e+00 3.272357177734375000e+01 4.119668483734130859e+00 1.276860237121582031e+00 4.119668483734130859e+00 1.163293933868408203e+01
3.353391647338867188e+01 -1.488086700439453125e+00 8.343402147293090820e-01 -1.488086700439453125e+00 3.104512214660644531e+01 4.379171371459960938e+00 8.343402147293090820e-01 4.379171371459960938e+00 1.047792816162109375e+01
3.194192695617675781e+01 -1.693003535270690918e+00 -2.115378081798553467e-01 -1.693003535270690918e+00 2.966244888305664062e+01 4.342285156250000000e+00 -2.115378081798553467e-01 4.342285156250000000e+00 9.692564964294433594e+00
3.161951446533203125e+01 -1.696907043457031250e+00 -6.118158102035522461e-01 -1.696907043457031250e+00 2.947390174865722656e+01 4.240228652954101562e+00 -6.118158102035522461e-01 4.240228652954101562e+00 9.664667129516601562e+00
3.112452697753906250e+01 -1.717848658561706543e+00 -1.954348683357238770e+00 -1.717848658561706543e+00 2.940101432800292969e+01 4.020516872406005859e+00 -1.954348683357238770e+00 4.020516872406005859e+00 1.017528152465820312e+01
3.096317291259765625e+01 -1.651861071586608887e+00 -2.412053585052490234e+00 -1.651861071586608887e+00 2.950255012512207031e+01 3.971949815750122070e+00 -2.412053585052490234e+00 3.971949815750122070e+00 1.041095066070556641e+01
3.095948219299316406e+01 -1.618716716766357422e+00 -2.658565521240234375e+00 -1.618716716766357422e+00 2.959391593933105469e+01 3.944439649581909180e+00 -2.658565521240234375e+00 3.944439649581909180e+00 1.058189868927001953e+01
3.107116699218750000e+01 -1.277092218399047852e+00 -3.827646017074584961e+00 -1.277092218399047852e+00 3.045003700256347656e+01 3.713111877441406250e+00 -3.827646017074584961e+00 3.713111877441406250e+00 1.175477790832519531e+01
3.151943206787109375e+01 -3.358936905860900879e-01 -5.035595417022705078e+00 -3.358936905860900879e-01 3.185491180419921875e+01 3.276503801345825195e+00 -5.035595417022705078e+00 3.276503801345825195e+00 1.324177265167236328e+01
3.190500259399414062e+01 3.405561745166778564e-01 -5.423234939575195312e+00 3.405561745166778564e-01 3.257188034057617188e+01 3.020516157150268555e+00 -5.423234939575195312e+00 3.020516157150268555e+00 1.393614959716796875e+01
3.262496566772460938e+01 1.864031910896301270e+00 -6.012153625488281250e+00 1.864031910896301270e+00 3.362293243408203125e+01 2.127684831619262695e+00 -6.012153625488281250e+00 2.127684831619262695e+00 1.508985233306884766e+01
3.460501480102539062e+01 1.325188398361206055e+00 -6.841114521026611328e+00 1.325188398361206055e+00 3.008197021484375000e+01 2.402168363332748413e-01 -6.841114521026611328e+00 2.402168363332748413e-01 1.485457229614257812e+01
3.506512069702148438e+01 1.152159571647644043e+00 -6.894092559814453125e+00 1.152159571647644043e+00 2.948521995544433594e+01 7.030481845140457153e-02 -6.894092559814453125e+00 7.030481845140457153e-02 1.451922988891601562e+01
3.805483245849609375e+01 6.507798433303833008e-01 -6.967485904693603516e+00 6.507798433303833008e-01 2.787392616271972656e+01 -3.573505282402038574e-01 -6.967485904693603516e+00 -3.573505282402038574e-01 1.337028694152832031e+01
4.076839447021484375e+01 3.333015143871307373e-01 -6.878254890441894531e+00 3.333015143871307373e-01 2.749866867065429688e+01 -1.550524830818176270e-01 -6.878254890441894531e+00 -1.550524830818176270e-01 1.260083389282226562e+01
4.157576751708984375e+01 2.642079293727874756e-01 -6.792460918426513672e+00 2.642079293727874756e-01 2.754853057861328125e+01 -7.895510643720626831e-03 -6.792460918426513672e+00 -7.895510643720626831e-03 1.251286506652832031e+01
4.234696578979492188e+01 1.809541583061218262e-01 -6.714593410491943359e+00 1.809541583061218262e-01 2.759644508361816406e+01 1.614085733890533447e-01 -6.714593410491943359e+00 1.614085733890533447e-01 1.249433803558349609e+01
4.321726226806640625e+01 -1.701167784631252289e-04 -6.546722888946533203e+00 -1.701167784631252289e-04 2.776029396057128906e+01 5.661713480949401855e-01 -6.546722888946533203e+00 5.661713480949401855e-01 1.252715778350830078e+01
4.351485061645507812e+01 -9.528344124555587769e-02 -6.438835144042968750e+00 -9.528344124555587769e-02 2.788165283203125000e+01 8.522117137908935547e-01 -6.438835144042968750e+00 8.522117137908935547e-01 1.268048667907714844e+01
4.364882278442382812e+01 -1.561542898416519165e-01 -6.364308834075927734e+00 -1.561542898416519165e-01 2.790089416503906250e+01 1.002728223800659180e+00 -6.364308834075927734e+00 1.002728223800659180e+00 1.279804325103759766e+01
4.375046539306640625e+01 -2.194498628377914429e-01 -6.285247802734375000e+00 -2.194498628377914429e-01 2.795610809326171875e+01 1.142884373664855957e+00 -6.285247802734375000e+00 1.142884373664855957e+00 1.295211124420166016e+01
4.379597473144531250e+01 -2.645144462585449219e-01 -6.191571712493896484e+00 -2.645144462585449219e-01 2.800433731079101562e+01 1.293527603149414062e+00 -6.191571712493896484e+00 1.293527603149414062e+00 1.310710334777832031e+01
4.372778701782226562e+01 -3.420669138431549072e-01 -6.104831695556640625e+00 -3.420669138431549072e-01 2.797906875610351562e+01 1.441889882087707520e+00 -6.104831695556640625e+00 1.441889882087707520e+00 1.326363182067871094e+01
4.104923629760742188e+01 -6.810930967330932617e-01 -5.201121330261230469e+00 -6.810930967330932617e-01 2.734165000915527344e+01 2.741857767105102539e+00 -5.201121330261230469e+00 2.741857767105102539e+00 1.461008358001708984e+01
3.785708618164062500e+01 -8.380764126777648926e-01 -4.777903079986572266e+00 -8.380764126777648926e-01 2.676947593688964844e+01 2.982836723327636719e+00 -4.777903079986572266e+00 2.982836723327636719e+00 1.449827384948730469e+01
3.577967453002929688e+01 -1.102075934410095215e+00 -4.690849304199218750e+00 -1.102075934410095215e+00 2.676158523559570312e+01 2.825279474258422852e+00 -4.690849304199218750e+00 2.825279474258422852e+00 1.362675476074218750e+01
3.510701370239257812e+01 -1.198998928070068359e+00 -4.673679351806640625e+00 -1.198998928070068359e+00 2.692295074462890625e+01 2.797322034835815430e+00 -4.673679351806640625e+00 2.797322034835815430e+00 1.320995426177978516e+01
3.456769180297851562e+01 -4.938979625701904297e+00 -3.827885389328002930e+00 -4.938979625701904297e+00 2.962268066406250000e+01 1.992163300514221191e+00 -3.827885389328002930e+00 1.992163300514221191e+00 8.292344093322753906e+00
3.442382812500000000e+01 -6.864604473114013672e+00 -3.918078660964965820e+00 -6.864604473114013672e+00 2.683205795288085938e+01 -3.319971859455108643e-01 -3.918078660964965820e+00 -3.319971859455108643e-01 9.491998672485351562e+00
3.431554412841796875e+01 -6.862592220306396484e+00 -3.928212404251098633e+00 -6.862592220306396484e+00 2.662787437438964844e+01 -5.195050239562988281e-01 -3.928212404251098633e+00 -5.195050239562988281e-01 9.711380958557128906e+00
3.349987411499023438e+01 -6.044296264648437500e+00 -3.841830492019653320e+00 -6.044296264648437500e+00 2.526143074035644531e+01 -1.677130460739135742e+00 -3.841830492019653320e+00 -1.677130460739135742e+00 1.117184162139892578e+01
3.334272766113281250e+01 -5.585084915161132812e+00 -3.801776885986328125e+00 -5.585084915161132812e+00 2.497790336608886719e+01 -1.946494460105895996e+00 -3.801776885986328125e+00 -1.946494460105895996e+00 1.153381538391113281e+01
3.324773788452148438e+01 -5.020627021789550781e+00 -3.708506107330322266e+00 -5.020627021789550781e+00 2.474577903747558594e+01 -2.146611452102661133e+00 -3.708506107330322266e+00 -2.146611452102661133e+00 1.193293571472167969e+01
3.322721862792968750e+01 -3.758325815200805664e+00 -3.452003955841064453e+00 -3.758325815200805664e+00 2.445506477355957031e+01 -2.435106277465820312e+00 -3.452003955841064453e+00 -2.435106277465820312e+00 1.248970508575439453e+01
3.341286849975585938e+01 -2.675966262817382812e+00 -3.259274482727050781e+00 -2.675966262817382812e+00 2.442865180969238281e+01 -2.503540515899658203e+00 -3.259274482727050781e+00 -2.503540515899658203e+00 1.286193943023681641e+01
3.352179336547851562e+01 -2.304033279418945312e+00 -3.190592050552368164e+00 -2.304033279418945312e+00 2.443445777893066406e+01 -2.496617078781127930e+00 -3.190592050552368164e+00 -2.496617078781127930e+00 1.299052429199218750e+01
3.384074783325195312e+01 -1.247231602668762207e+00 -2.989374399185180664e+00 -1.247231602668762207e+00 2.443627929687500000e+01 -2.368390321731567383e+00 -2.989374399185180664e+00 -2.368390321731567383e+00 1.312209129333496094e+01
3.449594879150390625e+01 2.059354931116104126e-01 -2.697756052017211914e+00 2.059354931116104126e-01 2.479336357116699219e+01 -1.857220172882080078e+00 -2.697756052017211914e+00 -1.857220172882080078e+00 1.325427246093750000e+01
3.491712951660156250e+01 1.033663630485534668e+00 -2.640445947647094727e+00 1.033663630485534668e+00 2.505635070800781250e+01 -1.299558281898498535e+00 -2.640445947647094727e+00 -1.299558281898498535e+00 1.314016532897949219e+01
3.528590393066406250e+01 1.478449344635009766e+00 -2.815977334976196289e+00 1.478449344635009766e+00 2.540870666503906250e+01 -4.520351588726043701e-01 -2.815977334976196289e+00 -4.520351588726043701e-01 1.260945510864257812e+01
3.528029632568359375e+01 1.505621194839477539e+00 -2.856262445449829102e+00 1.505621194839477539e+00 2.545913314819335938e+01 -2.629992067813873291e-01 -2.856262445449829102e+00 -2.629992067813873291e-01 1.240753269195556641e+01
3.533099746704101562e+01 1.493578195571899414e+00 -2.958065032958984375e+00 1.493578195571899414e+00 2.555899810791015625e+01 5.720940604805946350e-02 -2.958065032958984375e+00 5.720940604805946350e-02 1.197222328186035156e+01
3.544853973388671875e+01 1.390023112297058105e+00 -3.107734918594360352e+00 1.390023112297058105e+00 2.580640220642089844e+01 6.151477694511413574e-01 -3.107734918594360352e+00 6.151477694511413574e-01 1.126641654968261719e+01
3.549763870239257812e+01 1.234499573707580566e+00 -3.309542894363403320e+00 1.234499573707580566e+00 2.606729888916015625e+01 1.133607268333435059e+00 -3.309542894363403320e+00 1.133607268333435059e+00 1.046251106262207031e+01
3.551205825805664062e+01 1.171192884445190430e+00 -3.365919589996337891e+00 1.171192884445190430e+00 2.620619201660156250e+01 1.314249873161315918e+00 -3.365919589996337891e+00 1.314249873161315918e+00 1.015596675872802734e+01
3.602003860473632812e+01 8.845404386520385742e-01 -3.529984712600708008e+00 8.845404386520385742e-01 2.691756439208984375e+01 1.964747667312622070e+00 -3.529984712600708008e+00 1.964747667312622070e+00 9.036027908325195312e+00
3.637466812133789062e+01 7.902652621269226074e-01 -3.561339378356933594e+00 7.902652621269226074e-01 2.734461784362792969e+01 2.206434726715087891e+00 -3.561339378356933594e+00 2.206434726715087891e+00 8.763923645019531250e+00
3.720851516723632812e+01 6.462505459785461426e-01 -3.403360605239868164e+00 6.462505459785461426e-01 2.813283920288085938e+01 2.484878063201904297e+00 -3.403360605239868164e+00 2.484878063201904297e+00 8.362041473388671875e+00
3.999398803710937500e+01 6.408633589744567871e-01 -2.373029708862304688e+00 6.408633589744567871e-01 3.103209304809570312e+01 2.059388875961303711e+00 -2.373029708862304688e+00 2.059388875961303711e+00 9.518388748168945312e+00
4.061124038696289062e+01 8.546950817108154297e-01 -2.091055870056152344e+00 8.546950817108154297e-01 3.199681282043457031e+01 1.562538743019104004e+00 -2.091055870056152344e+00 1.562538743019104004e+00 1.026960849761962891e+01
4.084719085693359375e+01 1.134506940841674805e+00 -1.985233545303344727e+00 1.134506940841674805e+00 3.279931640625000000e+01 8.850824832916259766e-01 -1.985233545303344727e+00 8.850824832916259766e-01 1.109084892272949219e+01
4.006901168823242188e+01 2.116679191589355469e+00 -2.251481294631958008e+00 2.116679191589355469e+00 3.348072052001953125e+01 -1.319221686571836472e-02 -2.251481294631958008e+00 -1.319221686571836472e-02 1.201648902893066406e+01
3.722993087768554688e+01 3.945936441421508789e+00 -3.205488681793212891e+00 3.945936441421508789e+00 3.253427124023437500e+01 -4.171032905578613281e-01 -3.205488681793212891e+00 -4.171032905578613281e-01 1.274680042266845703e+01
3.537091445922851562e+01 4.924358367919921875e+00 -3.723895549774169922e+00 4.924358367919921875e+00 3.136807250976562500e+01 -2.683802247047424316e-01 -3.723895549774169922e+00 -2.683802247047424316e-01 1.335205173492431641e+01
3.347351837158203125e+01 5.818562984466552734e+00 -3.974423408508300781e+00 5.818562984466552734e+00 2.990362930297851562e+01 -3.572687506675720215e-02 -3.974423408508300781e+00 -3.572687506675720215e-02 1.456780529022216797e+01
3.216115188598632812e+01 6.250250339508056641e+00 -3.979542493820190430e+00 6.250250339508056641e+00 2.861549568176269531e+01 2.872233390808105469e-01 -3.979542493820190430e+00 2.872233390808105469e-01 1.616366577148437500e+01
3.196492195129394531e+01 6.282278537750244141e+00 -3.939306020736694336e+00 6.282278537750244141e+00 2.839987754821777344e+01 3.217172920703887939e-01 -3.939306020736694336e+00 3.217172920703887939e-01 1.641398239135742188e+01
3.168346023559570312e+01 6.294288158416748047e+00 -3.867912292480468750e+00 6.294288158416748047e+00 2.803385353088378906e+01 3.496763706207275391e-01 -3.867912292480468750e+00 3.496763706207275391e-01 1.695912361145019531e+01
3.142087364196777344e+01 6.315066337585449219e+00 -3.676428556442260742e+00 6.315066337585449219e+00 2.772144317626953125e+01 3.704481422901153564e-01 -3.676428556442260742e+00 3.704481422901153564e-01 1.770905113220214844e+01
3.118658638000488281e+01 6.183273315429687500e+00 -3.289631843566894531e+00 6.183273315429687500e+00 2.741618156433105469e+01 2.621417641639709473e-01 -3.289631843566894531e+00 2.621417641639709473e-01 1.878705406188964844e+01
3.116593170166015625e+01 6.121117591857910156e+00 -3.102219343185424805e+00 6.121117591857910156e+00 2.739938354492187500e+01 1.813617646694183350e-01 -3.102219343185424805e+00 1.813617646694183350e-01 1.907429122924804688e+01
3.119610023498535156e+01 5.955443382263183594e+00 -2.857090234756469727e+00 5.955443382263183594e+00 2.735536575317382812e+01 -4.659331962466239929e-02 -2.857090234756469727e+00 -4.659331962466239929e-02 1.933401870727539062e+01
3.129374694824218750e+01 5.564382076263427734e+00 -2.428633451461791992e+00 5.564382076263427734e+00 2.735663795471191406e+01 -5.700658559799194336e-01 -2.428633451461791992e+00 -5.700658559799194336e-01 1.899947357177734375e+01
3.147206878662109375e+01 4.883409500122070312e+00 -1.705986738204956055e+00 4.883409500122070312e+00 2.766636848449707031e+01 -1.495718002319335938e+00 -1.705986738204956055e+00 -1.495718002319335938e+00 1.716552543640136719e+01
3.167567634582519531e+01 3.604613065719604492e+00 -1.200885415077209473e+00 3.604613065719604492e+00 2.847852134704589844e+01 -2.312331676483154297e+00 -1.200885415077209473e+00 -2.312331676483154297e+00 1.286900901794433594e+01
3.167376518249511719e+01 3.166184425354003906e+00 -1.297208905220031738e+00 3.166184425354003906e+00 2.878627777099609375e+01 -2.400984287261962891e+00 -1.297208905220031738e+00 -2.400984287261962891e+00 1.125367546081542969e+01
3.153466987609863281e+01 2.846103668212890625e+00 -1.597036242485046387e+00 2.846103668212890625e+00 2.914570999145507812e+01 -2.334948062896728516e+00 -1.597036242485046387e+00 -2.334948062896728516e+00 9.638237953186035156e+00
3.144939041137695312e+01 2.791875362396240234e+00 -1.703771233558654785e+00 2.791875362396240234e+00 2.919641876220703125e+01 -2.308269500732421875e+00 -1.703771233558654785e+00 -2.308269500732421875e+00 9.336461067199707031e+00
3.093271636962890625e+01 2.716047525405883789e+00 -2.294943809509277344e+00 2.716047525405883789e+00 2.930125045776367188e+01 -2.256945610046386719e+00 -2.294943809509277344e+00 -2.256945610046386719e+00 8.203684806823730469e+00
2.839233398437500000e+01 2.874715089797973633e+00 -3.937154769897460938e+00 2.874715089797973633e+00 2.794053268432617188e+01 -2.101977825164794922e+00 -3.937154769897460938e+00 -2.101977825164794922e+00 6.541009902954101562e+00
2.802744102478027344e+01 2.873395919799804688e+00 -4.030298709869384766e+00 2.873395919799804688e+00 2.760889816284179688e+01 -2.074177026748657227e+00 -4.030298709869384766e+00 -2.074177026748657227e+00 6.443605899810791016e+00
2.732624053955078125e+01 2.746010780334472656e+00 -3.537609100341796875e+00 2.746010780334472656e+00 2.655200386047363281e+01 -1.774688363075256348e+00 -3.537609100341796875e+00 -1.774688363075256348e+00 6.189306735992431641e+00
2.741279029846191406e+01 2.683813333511352539e+00 -3.289659500122070312e+00 2.683813333511352539e+00 2.645529747009277344e+01 -1.654697418212890625e+00 -3.289659500122070312e+00 -1.654697418212890625e+00 6.129363536834716797e+00
3.019345855712890625e+01 -4.829595610499382019e-02 5.431307479739189148e-02 -4.829595610499382019e-02 2.680787467956542969e+01 -9.203597307205200195e-01 5.431307479739189148e-02 -9.203597307205200195e-01 6.003700256347656250e+00
3.031186294555664062e+01 -2.611953616142272949e-01 2.157881557941436768e-01 -2.611953616142272949e-01 2.680822181701660156e+01 -9.443360567092895508e-01 2.157881557941436768e-01 -9.443360567092895508e-01 6.019423961639404297e+00
3.040257835388183594e+01 -4.755960106849670410e-01 4.216410815715789795e-01 -4.755960106849670410e-01 2.677515029907226562e+01 -9.287141561508178711e-01 4.216410815715789795e-01 -9.287141561508178711e-01 5.978257656097412109e+00
3.116610717773437500e+01 -2.305441379547119141e+00 2.477893590927124023e+00 -2.305441379547119141e+00 2.727890777587890625e+01 -8.709740042686462402e-01 2.477893590927124023e+00 -8.709740042686462402e-01 6.606844425201416016e+00
3.116152191162109375e+01 -2.307979583740234375e+00 2.636169672012329102e+00 -2.307979583740234375e+00 2.738145637512207031e+01 -8.755711317062377930e-01 2.636169672012329102e+00 -8.755711317062377930e-01 6.684199810028076172e+00
2.877695465087890625e+01 -1.127892851829528809e+00 3.862545013427734375e+00 -1.127892851829528809e+00 2.892080307006835938e+01 -3.005829751491546631e-01 3.862545013427734375e+00 -3.005829751491546631e-01 7.240489482879638672e+00
2.741984558105468750e+01 -1.889342665672302246e-01 4.109362125396728516e+00 -1.889342665672302246e-01 2.913860702514648438e+01 -5.349815264344215393e-02 4.109362125396728516e+00 -5.349815264344215393e-02 7.380079269409179688e+00
2.371158599853515625e+01 2.738599061965942383e+00 4.315721511840820312e+00 2.738599061965942383e+00 2.817365074157714844e+01 7.427456378936767578e-01 4.315721511840820312e+00 7.427456378936767578e-01 8.612286567687988281e+00
2.338061904907226562e+01 3.021285772323608398e+00 4.247763156890869141e+00 3.021285772323608398e+00 2.783260726928710938e+01 8.062950372695922852e-01 4.247763156890869141e+00 8.062950372695922852e-01 8.819247245788574219e+00
2.283152389526367188e+01 3.447349786758422852e+00 4.059044837951660156e+00 3.447349786758422852e+00 2.693011093139648438e+01 9.410522580146789551e-01 4.059044837951660156e+00 9.410522580146789551e-01 9.051101684570312500e+00
2.313439559936523438e+01 3.492757081985473633e+00 3.083155632019042969e+00 3.492757081985473633e+00 2.488550186157226562e+01 8.240104317665100098e-01 3.083155632019042969e+00 8.240104317665100098e-01 8.101672172546386719e+00
2.330035209655761719e+01 3.418172836303710938e+00 2.939884662628173828e+00 3.418172836303710938e+00 2.473089790344238281e+01 7.673113346099853516e-01 2.939884662628173828e+00 7.673113346099853516e-01 7.922163963317871094e+00
2.360518836975097656e+01 3.205974578857421875e+00 2.470749855041503906e+00 3.205974578857421875e+00 2.436379814147949219e+01 5.976739525794982910e-01 2.470749855041503906e+00 5.976739525794982910e-01 7.094898700714111328e+00
2.413896179199218750e+01 2.853910446166992188e+00 1.821109056472778320e+00 2.853910446166992188e+00 2.420837211608886719e+01 1.911376118659973145e-01 1.821109056472778320e+00 1.911376118659973145e-01 6.002827644348144531e+00
2.512093734741210938e+01 2.323110818862915039e+00 8.361831307411193848e-01 2.323110818862915039e+00 2.425987243652343750e+01 -6.157167553901672363e-01 8.361831307411193848e-01 -6.157167553901672363e-01 4.433512687683105469e+00
2.522915077209472656e+01 2.259094715118408203e+00 6.764394640922546387e-01 2.259094715118408203e+00 2.428062438964843750e+01 -7.418937087059020996e-01 6.764394640922546387e-01 -7.418937087059020996e-01 4.172616481781005859e+00
2.537182998657226562e+01 2.183560132980346680e+00 4.830193817615509033e-01 2.183560132980346680e+00 2.434845924377441406e+01 -9.072772860527038574e-01 4.830193817615509033e-01 -9.072772860527038574e-01 3.856582164764404297e+00
2.591187667846679688e+01 2.003082752227783203e+00 -5.797698721289634705e-02 2.003082752227783203e+00 2.470706939697265625e+01 -1.410957574844360352e+00 -5.797698721289634705e-02 -1.410957574844360352e+00 3.348764896392822266e+00
2.706141853332519531e+01 1.931524515151977539e+00 -1.289448499679565430e+00 1.931524515151977539e+00 2.573143386840820312e+01 -2.601141452789306641e+00 -1.289448499679565430e+00 -2.601141452789306641e+00 2.791988611221313477e+00
2.720316314697265625e+01 1.941012859344482422e+00 -1.446397542953491211e+00 1.941012859344482422e+00 2.587418365478515625e+01 -2.760992527008056641e+00 -1.446397542953491211e+00 -2.760992527008056641e+00 2.758673191070556641e+00
2.732821846008300781e+01 1.990011811256408691e+00 -1.613521456718444824e+00 1.990011811256408691e+00 2.602040863037109375e+01 -2.929122447967529297e+00 -1.613521456718444824e+00 -2.929122447967529297e+00 2.695683002471923828e+00
2.755815505981445312e+01 2.121237754821777344e+00 -1.929397106170654297e+00 2.121237754821777344e+00 2.623200225830078125e+01 -3.231374502182006836e+00 -1.929397106170654297e+00 -3.231374502182006836e+00 2.590458154678344727e+00
2.778232765197753906e+01 2.236513137817382812e+00 -2.254435062408447266e+00 2.236513137817382812e+00 2.645373344421386719e+01 -3.560507774353027344e+00 -2.254435062408447266e+00 -3.560507774353027344e+00 2.578556060791015625e+00
2.818911743164062500e+01 2.606639623641967773e+00 -2.723283767700195312e+00 2.606639623641967773e+00 2.674222373962402344e+01 -4.130429744720458984e+00 -2.723283767700195312e+00 -4.130429744720458984e+00 2.509835243225097656e+00
2.836329650878906250e+01 2.793203592300415039e+00 -2.909636974334716797e+00 2.793203592300415039e+00 2.680420303344726562e+01 -4.381140232086181641e+00 -2.909636974334716797e+00 -4.381140232086181641e+00 2.478222131729125977e+00
2.830934906005859375e+01 3.240102291107177734e+00 -3.180718660354614258e+00 3.240102291107177734e+00 2.668079566955566406e+01 -5.039219856262207031e+00 -3.180718660354614258e+00 -5.039219856262207031e+00 2.085457324981689453e+00
2.785090255737304688e+01 3.346478939056396484e+00 -3.084574222564697266e+00 3.346478939056396484e+00 2.609464645385742188e+01 -5.481800079345703125e+00 -3.084574222564697266e+00 -5.481800079345703125e+00 1.341623783111572266e+00
2.752289581298828125e+01 3.302944898605346680e+00 -3.061775207519531250e+00 3.302944898605346680e+00 2.574260330200195312e+01 -5.535054206848144531e+00 -3.061775207519531250e+00 -5.535054206848144531e+00 9.470404386520385742e-01
2.668367004394531250e+01 2.986902475357055664e+00 -2.789312124252319336e+00 2.986902475357055664e+00 2.485187339782714844e+01 -5.508332252502441406e+00 -2.789312124252319336e+00 -5.508332252502441406e+00 1.486422419548034668e-01
2.480487442016601562e+01 1.813497543334960938e+00 -2.233803033828735352e+00 1.813497543334960938e+00 2.360008811950683594e+01 -5.047008037567138672e+00 -2.233803033828735352e+00 -5.047008037567138672e+00 -1.585537195205688477e+00
2.468397521972656250e+01 1.694800019264221191e+00 -2.200659751892089844e+00 1.694800019264221191e+00 2.357770919799804688e+01 -5.023456573486328125e+00 -2.200659751892089844e+00 -5.023456573486328125e+00 -1.715844273567199707e+00
2.453089714050292969e+01 1.502611041069030762e+00 -2.155546188354492188e+00 1.502611041069030762e+00 2.361023139953613281e+01 -4.984362602233886719e+00 -2.155546188354492188e+00 -4.984362602233886719e+00 -1.872296094894409180e+00
2.445187759399414062e+01 1.417879581451416016e+00 -2.133821249008178711e+00 1.417879581451416016e+00 2.368486022949218750e+01 -4.967586994171142578e+00 -2.133821249008178711e+00 -4.967586994171142578e+00 -1.971276402473449707e+00
2.433600234985351562e+01 1.137923836708068848e+00 -2.058106422424316406e+00 1.137923836708068848e+00 2.392640876770019531e+01 -4.963543415069580078e+00 -2.058106422424316406e+00 -4.963543415069580078e+00 -2.192851066589355469e+00
2.431775283813476562e+01 1.045666813850402832e+00 -2.064943790435791016e+00 1.045666813850402832e+00 2.408558654785156250e+01 -4.985644340515136719e+00 -2.064943790435791016e+00 -4.985644340515136719e+00 -2.242495775222778320e+00
2.453930091857910156e+01 7.843106985092163086e-01 -2.033773422241210938e+00 7.843106985092163086e-01 2.520468330383300781e+01 -5.045537948608398438e+00 -2.033773422241210938e+00 -5.045537948608398438e+00 -2.202820301055908203e+00
2.501063537597656250e+01 8.118627071380615234e-01 -2.006706953048706055e+00 8.118627071380615234e-01 2.741464614868164062e+01 -5.219204425811767578e+00 -2.006706953048706055e+00 -5.219204425811767578e+00 -1.778922438621520996e+00
2.508822441101074219e+01 8.280208110809326172e-01 -1.984653949737548828e+00 8.280208110809326172e-01 2.774476623535156250e+01 -5.238669872283935547e+00 -1.984653949737548828e+00 -5.238669872283935547e+00 -1.669441223144531250e+00
2.517102050781250000e+01 8.643793463706970215e-01 -1.948776841163635254e+00 8.643793463706970215e-01 2.806958389282226562e+01 -5.256433963775634766e+00 -1.948776841163635254e+00 -5.256433963775634766e+00 -1.584112524986267090e+00
2.528854942321777344e+01 1.047323942184448242e+00 -1.811176657676696777e+00 1.047323942184448242e+00 2.896441459655761719e+01 -5.253700733184814453e+00 -1.811176657676696777e+00 -5.253700733184814453e+00 -1.401699066162109375e+00
2.559602546691894531e+01 1.725815296173095703e+00 -1.128898859024047852e+00 1.725815296173095703e+00 3.118487930297851562e+01 -4.809122562408447266e+00 -1.128898859024047852e+00 -4.809122562408447266e+00 -1.420143723487854004e+00
2.563223457336425781e+01 1.830483436584472656e+00 -1.032045722007751465e+00 1.830483436584472656e+00 3.139711189270019531e+01 -4.734516143798828125e+00 -1.032045722007751465e+00 -4.734516143798828125e+00 -1.440962791442871094e+00
2.558591079711914062e+01 2.426762342453002930e+00 -6.031268239021301270e-01 2.426762342453002930e+00 3.228733825683593750e+01 -4.234150409698486328e+00 -6.031268239021301270e-01 -4.234150409698486328e+00 -1.641490578651428223e+00
2.547213554382324219e+01 2.729243516921997070e+00 -4.716850221157073975e-01 2.729243516921997070e+00 3.259009170532226562e+01 -4.076735496520996094e+00 -4.716850221157073975e-01 -4.076735496520996094e+00 -1.690149545669555664e+00
2.451345062255859375e+01 4.290702342987060547e+00 2.443469166755676270e-01 4.290702342987060547e+00 3.370059585571289062e+01 -2.784986257553100586e+00 2.443469166755676270e-01 -2.784986257553100586e+00 -5.928965210914611816e-01
2.325929641723632812e+01 4.867964267730712891e+00 5.201287269592285156e-01 4.867964267730712891e+00 3.397561645507812500e+01 -1.889275074005126953e+00 5.201287269592285156e-01 -1.889275074005126953e+00 6.254405379295349121e-01
2.281270217895507812e+01 4.996066570281982422e+00 5.565363764762878418e-01 4.996066570281982422e+00 3.399834823608398438e+01 -1.589882493019104004e+00 5.565363764762878418e-01 -1.589882493019104004e+00 1.126581549644470215e+00
2.185933876037597656e+01 5.126642227172851562e+00 5.951310396194458008e-01 5.126642227172851562e+00 3.415100860595703125e+01 -9.494498372077941895e-01 5.951310396194458008e-01 -9.494498372077941895e-01 2.079025030136108398e+00
2.165996551513671875e+01 5.142909526824951172e+00 5.677077770233154297e-01 5.142909526824951172e+00 3.417971420288085938e+01 -7.984411716461181641e-01 5.677077770233154297e-01 -7.984411716461181641e-01 2.343281745910644531e+00
2.143256378173828125e+01 5.138415813446044922e+00 5.554457902908325195e-01 5.138415813446044922e+00 3.423656463623046875e+01 -6.202911734580993652e-01 5.554457902908325195e-01 -6.202911734580993652e-01 2.593969345092773438e+00
1.860793685913085938e+01 3.125253677368164062e+00 -7.917049527168273926e-01 3.125253677368164062e+00 3.568954467773437500e+01 1.072140336036682129e+00 -7.917049527168273926e-01 1.072140336036682129e+00 5.612010478973388672e+00
1.858445549011230469e+01 2.947814226150512695e+00 -9.180958867073059082e-01 2.947814226150512695e+00 3.578643035888671875e+01 1.063690185546875000e+00 -9.180958867073059082e-01 1.063690185546875000e+00 5.691384315490722656e+00
1.944578552246093750e+01 1.250341534614562988e+00 -2.234394788742065430e+00 1.250341534614562988e+00 3.615264892578125000e+01 1.952695399522781372e-01 -2.234394788742065430e+00 1.952695399522781372e-01 6.499350547790527344e+00