-3.451706096529960632e-02 4.406717047095298767e-02 1.799304485321044922e-01 4.481381922960281372e-02 1.094652414321899414e-01 -4.180408269166946411e-02 -2.179287821054458618e-01 1.166591867804527283e-01 -8.824747055768966675e-02 -1.540682315826416016e-01 -1.145277395844459534e-01 -2.094934927299618721e-03 -1.630043536424636841e-01 2.544476985931396484e-01 -1.336603462696075439e-01 -1.343092974275350571e-02 2.018845826387405396e-01 -2.040998488664627075e-01 1.412574499845504761e-01 1.485650390386581421e-01 1.084398850798606873e-01 6.481083482503890991e-02 -1.289351731538772583e-01 8.501198887825012207e-02 1.587692350149154663e-01 -1.757508516311645508e-01 -7.579869776964187622e-02 -1.298402100801467896e-01 1.292678713798522949e-01 6.420353800058364868e-02 -1.825174875557422638e-02 -2.016310766339302063e-02 -4.082294926047325134e-02 4.238720983266830444e-03 -3.050357103347778320e-02 -3.100030682981014252e-02 5.798300728201866150e-02 6.233177334070205688e-02 -7.996542751789093018e-02 2.142603322863578796e-02 -1.591137647628784180e-01 4.802152514457702637e-02 -1.252605617046356201e-01 -9.512876719236373901e-02 7.518780231475830078e-02 4.979455843567848206e-02 7.003891468048095703e-02 -8.666521310806274414e-02 5.005424097180366516e-02 3.752370923757553101e-02 -6.086470186710357666e-02 1.893499344587326050e-01 4.684344679117202759e-02 1.654566675424575806e-01 9.130502492189407349e-02 -3.518297895789146423e-02 1.011837199330329895e-01 -1.116758733987808228e-01 -2.750257775187492371e-02 -1.243138760328292847e-01 9.467831254005432129e-02 -1.419130861759185791e-01 -6.554822623729705811e-02 -1.120836511254310608e-01 4.753764346241950989e-02 2.779722772538661957e-02 5.082094296813011169e-02 -1.496670097112655640e-01 1.616678982973098755e-01 1.519316434860229492e-01 -1.816088557243347168e-01 2.261347174644470215e-01 -7.644147425889968872e-02 -6.182938069105148315e-02 -1.922408789396286011e-01 -1.743156649172306061e-02 1.086198613047599792e-01 2.477206662297248840e-02 6.534305214881896973e-02 1.138998777605593204e-03 8.563728630542755127e-02 -6.264596432447433472e-02 -5.657713115215301514e-02 -1.263229399919509888e-01
-1.070576608180999756e-01 1.375151515007019043e+00 1.224380493164062500e+00 2.365368753671646118e-01 5.082222819328308105e-01 3.330252468585968018e-01 -2.764299631118774414e+00 4.839284420013427734e-01 -5.010756254196166992e-01 -1.432142615318298340e+00 -4.806873202323913574e-01 -3.502588272094726562e-01 -1.527790784835815430e+00 2.394964218139648438e+00 -1.114323377609252930e+00 -6.439492702484130859e-01 3.042903423309326172e+00 -2.906113624572753906e+00 1.104754805564880371e+00 1.694839000701904297e+00 5.861477851867675781e-01 1.364233136177062988e+00 -1.077089190483093262e+00 1.195504903793334961e+00 4.011425077915191650e-01 -5.989220738410949707e-01 -1.514595896005630493e-01 -1.353865861892700195e-01 2.800188772380352020e-02 1.209117919206619263e-01 -1.160683482885360718e-01 -2.273133099079132080e-01 -8.663538694381713867e-01 -8.241003006696701050e-02 -3.995448350906372070e-01 1.067470684647560120e-01 7.438530921936035156e-01 -2.016274631023406982e-01 -4.667102694511413574e-01 2.288924753665924072e-01 -9.847937822341918945e-01 4.187864437699317932e-02 -1.291941404342651367e+00 -1.237367630004882812e+00 6.985579729080200195e-01 3.312794566154479980e-01 9.692185521125793457e-01 -5.741052627563476562e-01 1.626567959785461426e+00 6.215457320213317871e-01 5.416044592857360840e-01 1.104655027389526367e+00 3.855441510677337646e-01 6.642609834671020508e-01 2.585018277168273926e-01 -4.722474217414855957e-01 5.105589032173156738e-01 -6.765832901000976562e-01 -2.223587930202484131e-01 -1.082682847976684570e+00 9.851881861686706543e-01 -8.758916258811950684e-01 -1.962142735719680786e-01 -1.327157855033874512e+00 -4.297928512096405029e-01 -3.833885490894317627e-01 9.775648713111877441e-01 -1.277801394462585449e+00 1.526183843612670898e+00 1.594530463218688965e+00 -2.716845750808715820e+00 3.216892480850219727e+00 -4.241019487380981445e-01 -6.352754235267639160e-01 -1.439562320709228516e+00 -5.244387388229370117e-01 1.059276103973388672e+00 -2.385634332895278931e-01 1.949883699417114258e-01 -1.051216125488281250e+00 -3.843280076980590820e-01 -9.935206174850463867e-02 3.251792788505554199e-01 -1.115740612149238586e-01
-1.273868530988693237e-01 1.552178740501403809e+00 1.360525608062744141e+00 2.811002731323242188e-01 5.698285102844238281e-01 3.669144511222839355e-01 -3.041698694229125977e+00 5.343647599220275879e-01 -5.110114216804504395e-01 -1.590656757354736328e+00 -5.052033066749572754e-01 -3.906997144222259521e-01 -1.705474615097045898e+00 2.632488489151000977e+00 -1.177804470062255859e+00 -6.876884102821350098e-01 3.393935203552246094e+00 -3.252359390258789062e+00 1.217102289199829102e+00 1.859297037124633789e+00 5.952479839324951172e-01 1.562434315681457520e+00 -1.120539784431457520e+00 1.322745800018310547e+00 4.237450957298278809e-01 -6.599256396293640137e-01 -1.435914933681488037e-01 -1.441149711608886719e-01 9.628267958760261536e-03 1.386657804250717163e-01 -1.302670091390609741e-01 -2.580498158931732178e-01 -9.706727862358093262e-01 -9.685706347227096558e-02 -4.534593224525451660e-01 1.345545798540115356e-01 8.389751911163330078e-01 -2.362818270921707153e-01 -5.253458619117736816e-01 2.622808218002319336e-01 -1.105892181396484375e+00 3.523748740553855896e-02 -1.459314107894897461e+00 -1.387875437736511230e+00 8.203141093254089355e-01 3.690016567707061768e-01 1.104462742805480957e+00 -6.307986378669738770e-01 1.797084569931030273e+00 6.967777609825134277e-01 6.048135161399841309e-01 1.196396589279174805e+00 4.101691544055938721e-01 7.157154679298400879e-01 2.744472920894622803e-01 -5.169825553894042969e-01 5.418913960456848145e-01 -7.758427858352661133e-01 -2.637669146060943604e-01 -1.235324621200561523e+00 1.129513978958129883e+00 -9.686045646667480469e-01 -2.099593877792358398e-01 -1.536655902862548828e+00 -5.305970311164855957e-01 -4.629554450511932373e-01 1.085239052772521973e+00 -1.362044572830200195e+00 1.637601613998413086e+00 1.789313673973083496e+00 -3.068547010421752930e+00 3.625588417053222656e+00 -4.608353078365325928e-01 -7.194615602493286133e-01 -1.615120291709899902e+00 -5.875362157821655273e-01 1.206222295761108398e+00 -2.223510742187500000e-01 2.172284126281738281e-01 -1.171826601028442383e+00 -4.403878450393676758e-01 -9.952792525291442871e-02 3.597503304481506348e-01 -1.114907562732696533e-01
-1.675603538751602173e-01 1.900109648704528809e+00 1.631605267524719238e+00 3.956547677516937256e-01 7.212628722190856934e-01 4.175297021865844727e-01 -3.462048292160034180e+00 6.931288242340087891e-01 -4.443406462669372559e-01 -1.909771919250488281e+00 -5.168910026550292969e-01 -4.711392521858215332e-01 -2.076859235763549805e+00 3.070166349411010742e+00 -1.279992461204528809e+00 -5.940446853637695312e-01 3.837079763412475586e+00 -3.657532930374145508e+00 1.443460106849670410e+00 2.097596645355224609e+00 5.410444736480712891e-01 1.992363929748535156e+00 -1.116353034973144531e+00 1.591898083686828613e+00 4.506223797798156738e-01 -7.932692170143127441e-01 -9.295207262039184570e-02 -1.724284738302230835e-01 -4.166524484753608704e-02 1.898723840713500977e-01 -1.625564694404602051e-01 -3.210058510303497314e-01 -1.181084632873535156e+00 -1.283685117959976196e-01 -5.767288208007812500e-01 2.133326679468154907e-01 1.045583963394165039e+00 -3.032472431659698486e-01 -6.637385487556457520e-01 3.395697474479675293e-01 -1.386328697204589844e+00 9.118161164224147797e-03 -1.820094347000122070e+00 -1.682027697563171387e+00 1.115025281906127930e+00 4.454014897346496582e-01 1.415147066116333008e+00 -7.413149476051330566e-01 2.017674446105957031e+00 7.867118716239929199e-01 6.668310761451721191e-01 1.346801519393920898e+00 4.297357499599456787e-01 7.991411089897155762e-01 3.003336787223815918e-01 -5.995206236839294434e-01 5.902662277221679688e-01 -1.016670823097229004e+00 -3.722114264965057373e-01 -1.591745376586914062e+00 1.471873402595520020e+00 -1.140036463737487793e+00 -2.233748883008956909e-01 -2.014711856842041016e+00 -7.902368307113647461e-01 -6.512193679809570312e-01 1.299300432205200195e+00 -1.485326409339904785e+00 1.821655035018920898e+00 2.080710172653198242e+00 -3.591605186462402344e+00 4.188959598541259766e+00 -5.355284214019775391e-01 -8.761112093925476074e-01 -1.987305521965026855e+00 -7.264827489852905273e-01 1.589344501495361328e+00 -1.356565505266189575e-01 2.465117424726486206e-01 -1.348671793937683105e+00 -5.302602648735046387e-01 -8.871798217296600342e-02 4.010062515735626221e-01 -1.246763989329338074e-01
-1.723040342330932617e-01 2.103373289108276367e+00 1.821275472640991211e+00 5.167815089225769043e-01 8.890854716300964355e-01 4.095129966735839844e-01 -3.460764884948730469e+00 9.926577806472778320e-01 -2.043492347002029419e-01 -2.150081157684326172e+00 -4.410820305347442627e-01 -5.330699682235717773e-01 -2.379653453826904297e+00 3.305027961730957031e+00 -1.357181549072265625e+00 -7.995823025703430176e-02 3.402626991271972656e+00 -3.134685516357421875e+00 1.628156304359436035e+00 2.062292814254760742e+00 3.821379542350769043e-01 2.313478231430053711e+00 -9.791080355644226074e-01 1.810207962989807129e+00 4.260642230510711670e-01 -9.153832197189331055e-01 2.615994773805141449e-02 -2.068874388933181763e-01 -1.087946966290473938e-01 2.602064609527587891e-01 -1.904868781566619873e-01 -3.709469735622406006e-01 -1.349699735641479492e+00 -1.439118534326553345e-01 -6.973583102226257324e-01 3.242567479610443115e-01 1.225946784019470215e+00 -3.400356173515319824e-01 -8.108730316162109375e-01 4.238361120223999023e-01 -1.669221520423889160e+00 -3.712673112750053406e-02 -2.128012180328369141e+00 -1.863884329795837402e+00 1.403902649879455566e+00 5.077100992202758789e-01 1.732504129409790039e+00 -8.219961524009704590e-01 1.882720232009887695e+00 6.704537868499755859e-01 5.465106368064880371e-01 1.370684981346130371e+00 3.844195604324340820e-01 8.207306265830993652e-01 3.135254979133605957e-01 -6.580744385719299316e-01 6.036729812622070312e-01 -1.239431738853454590e+00 -5.105578899383544922e-01 -1.929320454597473145e+00 1.823145270347595215e+00 -1.224035501480102539e+00 -1.975527852773666382e-01 -2.424213647842407227e+00 -1.055304765701293945e+00 -8.172010183334350586e-01 1.478058457374572754e+00 -1.510613203048706055e+00 1.915862798690795898e+00 1.988829135894775391e+00 -3.394450426101684570e+00 3.814119815826416016e+00 -6.145209670066833496e-01 -9.442978501319885254e-01 -2.281492710113525391e+00 -8.697183728218078613e-01 2.078818321228027344e+00 4.481947422027587891e-02 2.108176201581954956e-01 -1.304558873176574707e+00 -5.399049520492553711e-01 -4.980073124170303345e-02 3.665370047092437744e-01 -1.689610928297042847e-01
3.292894363403320312e-01 1.083468079566955566e+00 1.459461092948913574e+00 4.756176173686981201e-01 1.242622494697570801e+00 1.332073211669921875e-01 -1.406485557556152344e+00 2.008541345596313477e+00 5.905788540840148926e-01 -1.475789189338684082e+00 4.647161364555358887e-01 -2.111107259988784790e-01 -2.138700962066650391e+00 2.089004516601562500e+00 -1.501905918121337891e+00 1.701596856117248535e+00 -1.234221696853637695e+00 1.052669405937194824e+00 1.739274263381958008e+00 6.246176958084106445e-01 2.827354967594146729e-01 1.211728572845458984e+00 -7.692669034004211426e-01 1.614918231964111328e+00 -6.296786665916442871e-02 -1.011969804763793945e+00 8.185683488845825195e-01 -1.418472528457641602e-01 -3.286800980567932129e-01 4.152090251445770264e-01 -2.009389251470565796e-01 -2.415819019079208374e-01 -1.235102534294128418e+00 9.323180466890335083e-02 -8.472613692283630371e-01 8.088922500610351562e-01 1.277957201004028320e+00 -1.124076098203659058e-01 -1.155444145202636719e+00 6.149045825004577637e-01 -2.175182819366455078e+00 -2.742549777030944824e-01 -2.149544715881347656e+00 -1.248694896697998047e+00 1.116698622703552246e+00 5.367203950881958008e-01 2.317016124725341797e+00 -8.678275942802429199e-01 -9.712959825992584229e-02 -7.500438094139099121e-01 -5.205759406089782715e-01 -3.964795544743537903e-02 -3.281303942203521729e-01 1.607032120227813721e-01 2.052203267812728882e-01 -6.661564111709594727e-01 4.289592802524566650e-01 -7.988011837005615234e-01 -5.707885622978210449e-01 -2.111242055892944336e+00 2.356204271316528320e+00 -6.149611473083496094e-01 2.731262445449829102e-01 -1.709808468818664551e+00 -9.126296043395996094e-01 -3.596767783164978027e-01 1.576539397239685059e+00 -9.355314373970031738e-01 1.547203660011291504e+00 3.715511858463287354e-01 -6.057416647672653198e-02 -5.508121252059936523e-01 -1.021572947502136230e+00 -3.391681313514709473e-01 -2.061830043792724609e+00 -1.142129898071289062e+00 3.356708049774169922e+00 7.675041556358337402e-01 -3.887605965137481689e-01 1.137404739856719971e-01 -1.141703575849533081e-01 2.843064367771148682e-01 -1.530747562646865845e-01 -5.064945220947265625e-01
5.205898284912109375e-01 4.180866181850433350e-01 1.097895026206970215e+00 3.001423776149749756e-01 1.256137251853942871e+00 1.051020771265029907e-01 -7.230508327484130859e-01 1.981456756591796875e+00 4.497435688972473145e-01 -6.959529519081115723e-01 9.041089415550231934e-01 1.669720858335494995e-01 -1.537325978279113770e+00 1.254225373268127441e+00 -1.234491586685180664e+00 1.512961626052856445e+00 -1.992548584938049316e+00 1.763921976089477539e+00 1.671886205673217773e+00 2.651059627532958984e-01 5.182963609695434570e-01 4.540733098983764648e-01 -8.756704926490783691e-01 1.372163891792297363e+00 -2.736918926239013672e-01 -9.621552228927612305e-01 1.121483445167541504e+00 -2.568223699927330017e-02 -3.661935031414031982e-01 3.865890502929687500e-01 -1.755914539098739624e-01 -9.769987314939498901e-02 -9.556323289871215820e-01 2.548184692859649658e-01 -8.200163841247558594e-01 9.733446836471557617e-01 1.133896708488464355e+00 4.954516422003507614e-03 -1.146690011024475098e+00 6.198683381080627441e-01 -2.177727699279785156e+00 -3.548950552940368652e-01 -1.913204312324523926e+00 -8.034975528717041016e-01 6.203784346580505371e-01 4.803109169006347656e-01 2.327184438705444336e+00 -8.484353423118591309e-01 -6.373847723007202148e-01 -1.115557074546813965e+00 -7.459614276885986328e-01 -1.033553242683410645e+00 -7.176535725593566895e-01 -3.205641508102416992e-01 1.086810529232025146e-01 -6.317530274391174316e-01 3.130061328411102295e-01 -2.872447073459625244e-01 -3.335065543651580811e-01 -1.971480965614318848e+00 2.249218702316284180e+00 -2.406578510999679565e-01 5.098307728767395020e-01 -1.023512601852416992e+00 -6.137496232986450195e-01 4.509406909346580505e-02 1.320162296295166016e+00 -4.751275479793548584e-01 1.050454616546630859e+00 9.483668953180313110e-02 6.061026453971862793e-01 -1.296936511993408203e+00 -1.154485583305358887e+00 -1.649830788373947144e-01 -1.703745245933532715e+00 -1.097430229187011719e+00 3.165114164352416992e+00 7.000296711921691895e-01 -5.815378427505493164e-01 5.606136918067932129e-01 1.834482327103614807e-02 4.381962418556213379e-01 -3.544924259185791016e-01 -6.337903738021850586e-01
5.728330612182617188e-01 -2.364186048507690430e-01 6.875038146972656250e-01 9.295412898063659668e-02 1.226939797401428223e+00 1.670342981815338135e-01 -1.364078372716903687e-01 1.796858787536621094e+00 1.125510782003402710e-01 1.773253977298736572e-01 1.321135282516479492e+00 6.061335206031799316e-01 -5.795477628707885742e-01 2.880510091781616211e-01 -5.843464732170104980e-01 1.089255690574645996e+00 -2.198890447616577148e+00 2.266364336013793945e+00 1.605414390563964844e+00 9.022567421197891235e-02 7.612743973731994629e-01 -2.000791579484939575e-01 -9.770650267601013184e-01 1.146609306335449219e+00 -4.224991202354431152e-01 -8.963832855224609375e-01 1.365804076194763184e+00 1.268505305051803589e-01 -3.761380314826965332e-01 3.096369504928588867e-01 -1.362684816122055054e-01 7.635457068681716919e-02 -5.606188178062438965e-01 4.175045192241668701e-01 -7.707520127296447754e-01 1.122611641883850098e+00 9.426883459091186523e-01 7.840219885110855103e-02 -1.023196816444396973e+00 5.758711099624633789e-01 -2.110796213150024414e+00 -4.169666469097137451e-01 -1.636139154434204102e+00 -3.398345708847045898e-01 8.464792370796203613e-02 3.753214478492736816e-01 2.252781867980957031e+00 -8.152665495872497559e-01 -1.024128079414367676e+00 -1.345933556556701660e+00 -8.680893182754516602e-01 -2.097368717193603516e+00 -1.106922745704650879e+00 -8.491860628128051758e-01 -5.515531171113252640e-03 -5.786720514297485352e-01 1.760131120681762695e-01 2.353428602218627930e-01 -2.236962690949440002e-02 -1.831001520156860352e+00 2.005898237228393555e+00 1.217803135514259338e-01 7.303157448768615723e-01 -3.676163554191589355e-01 -3.393383324146270752e-01 4.443365335464477539e-01 7.632150650024414062e-01 1.774827539920806885e-01 1.870966255664825439e-01 -4.300016164779663086e-02 1.029277443885803223e+00 -1.696979641914367676e+00 -1.240846395492553711e+00 -1.233620569109916687e-01 -1.282202005386352539e+00 -9.732145667076110840e-01 2.621245145797729492e+00 3.935047984123229980e-01 -7.127782702445983887e-01 8.754426836967468262e-01 1.094986647367477417e-01 5.949286222457885742e-01 -5.330108404159545898e-01 -7.430375814437866211e-01
5.477468371391296387e-01 -4.100277423858642578e-01 5.690659284591674805e-01 3.360843658447265625e-02 1.211923003196716309e+00 2.029983848333358765e-01 1.397857442498207092e-02 1.726442933082580566e+00 -9.643180295825004578e-03 3.988922834396362305e-01 1.423525810241699219e+00 7.204000353813171387e-01 -2.338747680187225342e-01 -8.399794809520244598e-03 -3.172659277915954590e-01 9.505919218063354492e-01 -2.182063102722167969e+00 2.382968425750732422e+00 1.589021563529968262e+00 7.207573950290679932e-02 8.219760656356811523e-01 -3.548271656036376953e-01 -9.986802935600280762e-01 1.087850809097290039e+00 -4.444471001625061035e-01 -8.775252699851989746e-01 1.418387770652770996e+00 1.748113781213760376e-01 -3.744961321353912354e-01 2.802780270576477051e-01 -1.213303655385971069e-01 1.294329464435577393e-01 -4.301826059818267822e-01 4.604985117912292480e-01 -7.538634538650512695e-01 1.161856412887573242e+00 8.828073740005493164e-01 8.691717684268951416e-02 -9.643401503562927246e-01 5.534392595291137695e-01 -2.080868482589721680e+00 -4.296298325061798096e-01 -1.553653478622436523e+00 -2.111672908067703247e-01 -6.239296495914459229e-02 3.357506096363067627e-01 2.216926097869873047e+00 -8.011254668235778809e-01 -1.108181595802307129e+00 -1.388154625892639160e+00 -8.862978816032409668e-01 -2.369034290313720703e+00 -1.204491972923278809e+00 -9.871699810028076172e-01 -3.770574554800987244e-02 -5.600146055221557617e-01 1.342763900756835938e-01 3.743248879909515381e-01 7.068580389022827148e-02 -1.795047163963317871e+00 1.914451837539672852e+00 2.155438214540481567e-01 7.853748798370361328e-01 -1.985966563224792480e-01 -2.724371850490570068e-01 5.495625734329223633e-01 5.362823009490966797e-01 3.981831669807434082e-01 -1.403282582759857178e-01 -6.364509463310241699e-02 1.118376016616821289e+00 -1.767505526542663574e+00 -1.255509376525878906e+00 -1.333687901496887207e-01 -1.155238389968872070e+00 -9.259376525878906250e-01 2.423448085784912109e+00 2.728634774684906006e-01 -7.379729747772216797e-01 9.406669735908508301e-01 1.277339607477188110e-01 6.385083198547363281e-01 -5.785028934478759766e-01 -7.693676948547363281e-01
3.633375167846679688e-01 -8.820468187332153320e-01 2.201322168111801147e-01 -1.321166604757308960e-01 1.156664848327636719e+00 3.565827310085296631e-01 4.295887053012847900e-01 1.488960385322570801e+00 -4.150665998458862305e-01 8.649767637252807617e-01 1.649316549301147461e+00 9.631111621856689453e-01 9.831750392913818359e-01 -9.028861522674560547e-01 6.656709909439086914e-01 5.371379256248474121e-01 -2.012523412704467773e+00 2.654527902603149414e+00 1.547807335853576660e+00 8.648163080215454102e-02 9.599373936653137207e-01 -7.107722759246826172e-01 -1.040805816650390625e+00 9.233104586601257324e-01 -4.462283551692962646e-01 -8.228790760040283203e-01 1.516702651977539062e+00 3.224019706249237061e-01 -3.581521213054656982e-01 1.765062510967254639e-01 -7.199192047119140625e-02 2.850376665592193604e-01 7.193947094492614269e-04 5.705216526985168457e-01 -6.991745233535766602e-01 1.266721487045288086e+00 6.929540038108825684e-01 7.544594258069992065e-02 -7.202966809272766113e-01 4.536634683609008789e-01 -1.967129111289978027e+00 -4.472881555557250977e-01 -1.309508681297302246e+00 1.584061980247497559e-01 -4.662891328334808350e-01 1.892352700233459473e-01 2.073302745819091797e+00 -7.493156790733337402e-01 -1.293541669845581055e+00 -1.461209416389465332e+00 -9.084196686744689941e-01 -2.965117216110229492e+00 -1.422773003578186035e+00 -1.301335692405700684e+00 -1.261794716119766235e-01 -4.889750182628631592e-01 9.588672779500484467e-03 7.448044419288635254e-01 3.447772562503814697e-01 -1.693721532821655273e+00 1.596538424491882324e+00 4.685244560241699219e-01 9.228950142860412598e-01 2.430227547883987427e-01 -1.127680763602256775e-01 8.345112204551696777e-01 -3.292704224586486816e-01 1.108693718910217285e+00 -1.308277130126953125e+00 -8.999684453010559082e-02 1.324140906333923340e+00 -1.898542284965515137e+00 -1.273596048355102539e+00 -2.178223282098770142e-01 -7.693635821342468262e-01 -7.687506675720214844e-01 1.791412115097045898e+00 -1.294319182634353638e-01 -7.842394709587097168e-01 1.074314951896667480e+00 1.669746488332748413e-01 7.621439695358276367e-01 -6.962861418724060059e-01 -8.304643034934997559e-01
2.607782781124114990e-01 -1.020813941955566406e+00 1.125788465142250061e-01 -1.795555800199508667e-01 1.135307192802429199e+00 4.213200211524963379e-01 5.518287420272827148e-01 1.404781460762023926e+00 -5.566186904907226562e-01 9.285128712654113770e-01 1.690970420837402344e+00 9.979321360588073730e-01 1.426233172416687012e+00 -1.189632534980773926e+00 1.027091979980468750e+00 4.086141586303710938e-01 -1.930380344390869141e+00 2.715446710586547852e+00 1.536513447761535645e+00 1.098745614290237427e-01 9.933771491050720215e-01 -7.946385741233825684e-01 -1.047385811805725098e+00 8.700351715087890625e-01 -4.218316674232482910e-01 -8.075239062309265137e-01 1.529990553855895996e+00 3.707423210144042969e-01 -3.507874608039855957e-01 1.398330628871917725e-01 -5.001515895128250122e-02 3.356339037418365479e-01 1.506923735141754150e-01 5.987703800201416016e-01 -6.787481307983398438e-01 1.297570109367370605e+00 6.276253461837768555e-01 6.012010946869850159e-02 -6.215318441390991211e-01 4.109415113925933838e-01 -1.922010302543640137e+00 -4.463389217853546143e-01 -1.229496479034423828e+00 2.727966308593750000e-01 -5.863015651702880859e-01 1.320714056491851807e-01 2.014923334121704102e+00 -7.271723151206970215e-01 -1.333785057067871094e+00 -1.467834115028381348e+00 -9.047836065292358398e-01 -3.064186096191406250e+00 -1.463710069656372070e+00 -1.358932495117187500e+00 -1.494813859462738037e-01 -4.617460072040557861e-01 -3.112577833235263824e-02 8.492354154586791992e-01 4.310146272182464600e-01 -1.662737131118774414e+00 1.478594183921813965e+00 5.406655073165893555e-01 9.584389328956604004e-01 3.667570948600769043e-01 -7.193432748317718506e-02 9.170282483100891113e-01 -6.601117849349975586e-01 1.345304131507873535e+00 -1.736249089241027832e+00 -8.837910741567611694e-02 1.375530004501342773e+00 -1.920742273330688477e+00 -1.271977305412292480e+00 -2.561250925064086914e-01 -6.410866379737854004e-01 -7.129603028297424316e-01 1.580314755439758301e+00 -2.675474882125854492e-01 -7.904363870620727539e-01 1.100501656532287598e+00 1.748432517051696777e-01 7.996435165405273438e-01 -7.290682196617126465e-01 -8.449165225028991699e-01
2.034257054328918457e-01 -1.086581230163574219e+00 6.049137935042381287e-02 -2.019478231668472290e-01 1.124292135238647461e+00 4.562109410762786865e-01 6.097854971885681152e-01 1.361917614936828613e+00 -6.275646686553955078e-01 9.397994875907897949e-01 1.704876065254211426e+00 1.004576921463012695e+00 1.649968028068542480e+00 -1.326237797737121582e+00 1.207197785377502441e+00 3.469642400741577148e-01 -1.886579513549804688e+00 2.740048408508300781e+00 1.530984044075012207e+00 1.245283037424087524e-01 1.006920218467712402e+00 -8.293932080268859863e-01 -1.048711895942687988e+00 8.440346121788024902e-01 -4.054208397865295410e-01 -7.999324798583984375e-01 1.532386898994445801e+00 3.945008516311645508e-01 -3.467482626438140869e-01 1.209781244397163391e-01 -3.877738118171691895e-02 3.603879511356353760e-01 2.266021370887756348e-01 6.116768121719360352e-01 -6.688036322593688965e-01 1.312143087387084961e+00 5.945183038711547852e-01 5.048155784606933594e-02 -5.694423317909240723e-01 3.878766596317291260e-01 -1.898388028144836426e+00 -4.448101520538330078e-01 -1.189686536788940430e+00 3.278537392616271973e-01 -6.431404352188110352e-01 1.019699573516845703e-01 1.983631968498229980e+00 -7.153112888336181641e-01 -1.349860072135925293e+00 -1.468135476112365723e+00 -9.013887047767639160e-01 -3.091553926467895508e+00 -1.476571798324584961e+00 -1.376899957656860352e+00 -1.595441699028015137e-01 -4.467924535274505615e-01 -5.051395297050476074e-02 8.978658318519592285e-01 4.729909896850585938e-01 -1.647762537002563477e+00 1.417973279953002930e+00 5.746729969978332520e-01 9.741560816764831543e-01 4.239471852779388428e-01 -5.427650734782218933e-02 9.559928178787231445e-01 -8.294456601142883301e-01 1.458852291107177734e+00 -1.949684619903564453e+00 -8.601780235767364502e-02 1.398488402366638184e+00 -1.928632497787475586e+00 -1.269870042800903320e+00 -2.775074243545532227e-01 -5.775243043899536133e-01 -6.852551102638244629e-01 1.476801633834838867e+00 -3.357326090335845947e-01 -7.918648719787597656e-01 1.110352635383605957e+00 1.781486719846725464e-01 8.173912763595581055e-01 -7.448281049728393555e-01 -8.513782024383544922e-01
-2.171322554349899292e-01 -1.428488016128540039e+00 -2.245781719684600830e-01 -3.021411597728729248e-01 1.059156298637390137e+00 6.892901659011840820e-01 9.131818413734436035e-01 1.094434857368469238e+00 -1.041348814964294434e+00 7.231218218803405762e-01 1.687595605850219727e+00 8.918648362159729004e-01 2.888700962066650391e+00 -1.995567083358764648e+00 2.123714923858642578e+00 2.504049055278301239e-02 -1.606362700462341309e+00 2.785198688507080078e+00 1.495488405227661133e+00 2.389568090438842773e-01 1.052199363708496094e+00 -9.545642733573913574e-01 -1.035655856132507324e+00 6.838497519493103027e-01 -2.519475519657135010e-01 -7.624360322952270508e-01 1.498879194259643555e+00 5.230215787887573242e-01 -3.207091391086578369e-01 8.638393133878707886e-03 3.431703150272369385e-02 4.916006326675415039e-01 6.783881783485412598e-01 6.633436679840087891e-01 -6.081852316856384277e-01 1.388370156288146973e+00 3.880828619003295898e-01 -3.661765530705451965e-02 -2.153453379869461060e-01 2.217905819416046143e-01 -1.740800499916076660e+00 -4.103336930274963379e-01 -9.599677324295043945e-01 6.373251080513000488e-01 -9.407091140747070312e-01 -9.553088992834091187e-02 1.767111659049987793e+00 -6.337070465087890625e-01 -1.389389753341674805e+00 -1.428409934043884277e+00 -8.612692356109619141e-01 -2.948216438293457031e+00 -1.458867669105529785e+00 -1.336277961730957031e+00 -1.958049535751342773e-01 -3.452241122722625732e-01 -1.572908461093902588e-01 1.139939308166503906e+00 7.053863406181335449e-01 -1.560564637184143066e+00 1.042229175567626953e+00 7.549468874931335449e-01 1.041047453880310059e+00 7.072910070419311523e-01 2.133450098335742950e-02 1.160559058189392090e+00 -1.766043543815612793e+00 2.016409397125244141e+00 -3.086506128311157227e+00 -5.217643082141876221e-02 1.499281287193298340e+00 -1.929356455802917480e+00 -1.239692926406860352e+00 -4.191592633724212646e-01 -2.056615352630615234e-01 -5.239471793174743652e-01 9.017147421836853027e-01 -7.164281606674194336e-01 -7.828089594841003418e-01 1.132056832313537598e+00 1.877805292606353760e-01 9.138380289077758789e-01 -8.208067417144775391e-01 -8.702850937843322754e-01