-6.504396796226493693e-01 8.870594978332517755e+00 6.231741428375244141e+00 9.970530271530152477e-01 8.869435310363769531e+00 7.468085289001464844e+00 3.975052118301391157e+00 4.762139320373535156e+00 2.906194210052490678e+00 2.322736263275146040e+00 4.765292644500731534e+00 1.665625333786010742e+00 -1.915473937988281250e+00 5.763344764709472656e+00 6.032205581665039062e+00 2.264264345169067383e+00 5.763408184051512784e+00 7.684099674224853516e+00 5.224861145019533026e+00 7.869389533996581143e+00 3.107420206069946289e+00 1.043942689895629883e+00 7.878798961639403409e+00 1.452457666397094727e+00 -2.073612928390502486e+00 7.591177940368652344e+00 6.988395690917968750e+00 2.416774988174438032e+00 7.589525222778319424e+00 6.712095260620118076e+00 5.389258861541748047e+00 6.057405948638916016e+00 2.151150226593017578e+00 8.946675658226013184e-01 6.060520648956297940e+00 2.416460990905761719e+00 -8.067598342895510033e-01 4.469590663909912109e+00 7.186965465545655185e+00 1.148955583572387917e+00 4.478612899780273438e+00 6.523673057556153232e+00 4.125577449798583096e+00 9.173079490661621094e+00 1.955324292182922363e+00 2.163347721099853960e+00 9.163896560668945312e+00 2.618386268615722656e+00 7.667940616607666904e+00 2.754778861999511719e+00 1.258285045623779297e+00 -1.386237859725952148e+00 2.753038406372069868e+00 3.309859514236450639e+00 -4.359084606170654297e+00 1.089209938049316229e+01 7.882450580596923828e+00 4.704685211181641513e+00 1.088757133483886541e+01 5.835334300994873047e+00 6.960875988006591797e+00 1.328805351257324041e+01 1.772183775901794434e-01 -6.787901520729064941e-01 1.328808593749999822e+01 4.385724067687988281e+00 -3.665073633193969727e+00 3.519170582294464111e-01 8.958448410034179688e+00 3.993846178054810458e+00 3.566328287124633789e-01 4.745778560638428623e+00 6.158497333526611328e+00 1.468187689781188743e+00 7.228817343711853027e-01 1.310290992259977028e-01 1.456926345825195090e+00 3.852442741394042969e+00 -2.837089061737059659e+00 1.217757987976074219e+01 8.419910430908203125e+00 3.177090167999268910e+00 1.217628860473632635e+01 5.289264678955079013e+00 6.854645729064940518e+00 1.199912357330322088e+01 1.784147620201110840e+00 -5.801870226860046387e-01 1.200465106964111150e+01 2.785593509674072266e+00 -3.550165891647338867e+00 1.644721746444702148e+00 7.355473995208740234e+00 3.902148485183715820e+00 1.647106409072875977e+00 6.360730171203614169e+00
-6.233436465263365589e-01 8.843829154968261719e+00 6.191041946411133701e+00 9.762685298919676624e-01 8.829613685607908380e+00 7.405683040618896484e+00 4.078737735748291016e+00 4.678824901580810547e+00 2.932039260864258257e+00 2.419673204421997070e+00 4.720056533813476562e+00 1.667836308479309082e+00 -1.884624600410461204e+00 5.720914840698242188e+00 6.091371536254882812e+00 2.264600276947021928e+00 5.722266674041748047e+00 7.716112613677978516e+00 5.146410942077637607e+00 7.803805828094481534e+00 3.058238267898560014e+00 9.834482669830323376e-01 7.923455238342284268e+00 1.391366958618164062e+00 -2.086385726928710493e+00 7.690564155578613281e+00 6.942134857177735263e+00 2.395355939865112305e+00 7.668389320373535156e+00 6.664298057556152344e+00 5.429296970367431641e+00 6.031873226165770596e+00 2.202321529388427734e+00 8.950073719024658203e-01 6.072818279266357422e+00 2.340039491653442383e+00 -8.446040749549856841e-01 4.451010704040527344e+00 7.223824501037597656e+00 1.141715407371522106e+00 4.566399097442626953e+00 6.513258934020996094e+00 4.225504875183105469e+00 9.198841094970703125e+00 1.958076477050781250e+00 2.158528089523314986e+00 9.081045150756835938e+00 2.663997650146484819e+00 7.652762413024902344e+00 2.772233247756957564e+00 1.265015721321105957e+00 -1.356394171714782715e+00 2.748191833496093750e+00 3.288457393646240234e+00 -4.394670963287353516e+00 1.093279266357421875e+01 7.897909641265869141e+00 4.733213424682616299e+00 1.087566757202148438e+01 5.929640293121337891e+00 6.900596618652344638e+00 1.328229713439941229e+01 1.418996006250381470e-01 -6.040180325508117676e-01 1.328220367431640447e+01 4.347000122070312500e+00 -3.812446117401123047e+00 3.313194811344146729e-01 8.955260276794433594e+00 3.935840845108033115e+00 3.917181193828582209e-01 4.700502395629882812e+00 6.232331275939941406e+00 1.514128804206847922e+00 7.782670855522156872e-01 1.600949466228487328e-01 1.373863101005553977e+00 3.864075660705566406e+00 -2.820150136947631392e+00 1.217584133148193359e+01 8.409555435180664062e+00 3.089472055435180220e+00 1.215906047821044922e+01 5.308506011962890625e+00 6.786491870880126953e+00 1.199538040161132812e+01 1.751422166824340820e+00 -5.860117673873901367e-01 1.206326961517333807e+01 2.818255901336669922e+00 -3.584167242050170898e+00 1.670245409011840598e+00 7.397445201873780185e+00 4.005801677703858310e+00 1.701055765151977539e+00 6.408969402313232422e+00
-6.192772984504704148e-01 8.839747428894041192e+00 6.183429718017578125e+00 9.731311798095699794e-01 8.823689460754394531e+00 7.396278381347656250e+00 4.095252037048339844e+00 4.665093898773192471e+00 2.936324596405029741e+00 2.435379981994628906e+00 4.712773323059082031e+00 1.668290257453918457e+00 -1.880137801170349121e+00 5.714405536651610440e+00 6.100841045379638672e+00 2.264798641204833984e+00 5.716081619262695312e+00 7.720999240875244141e+00 5.134065151214599609e+00 7.793596267700194424e+00 3.051276683807373047e+00 9.739286899566650391e-01 7.930779933929443359e+00 1.381709098815918191e+00 -2.088852405548095259e+00 7.706277370452879971e+00 6.934700012207031250e+00 2.392369985580444336e+00 7.680445194244384766e+00 6.656571865081787998e+00 5.436448574066162109e+00 6.026965141296386719e+00 2.209962844848632812e+00 8.953350186347963646e-01 6.074472904205322266e+00 2.327212572097778320e+00 -8.505392670631400920e-01 4.447936534881591797e+00 7.230180263519287109e+00 1.140581250190735307e+00 4.580492973327635831e+00 6.511562824249267578e+00 4.240882396697998047e+00 9.203063964843748224e+00 1.958355665206909180e+00 2.157930135726929155e+00 9.067601203918457031e+00 2.671004295349121094e+00 7.651317596435545987e+00 2.775669097900390181e+00 1.266001462936401589e+00 -1.351373791694641113e+00 2.747330188751220259e+00 3.285579204559326172e+00 -4.400343418121337891e+00 1.093930721282958984e+01 7.901173591613769531e+00 4.737222671508788174e+00 1.087391662597656250e+01 5.944156646728515625e+00 6.890852928161621094e+00 1.328119087219238104e+01 1.362096816301345825e-01 -5.925390720367431641e-01 1.328084945678710938e+01 4.342014312744140625e+00 -3.836316347122191939e+00 3.275777101516723078e-01 8.954975128173828125e+00 3.926033735275268555e+00 3.969870507717132013e-01 4.693545818328857422e+00 6.243153095245361328e+00 1.521165013313293457e+00 7.869965434074401855e-01 1.655647903680803890e-01 1.361612081527709739e+00 3.865499496459960938e+00 -2.817734241485596147e+00 1.217603969573974432e+01 8.408145904541015625e+00 3.075881242752075195e+00 1.215668392181396484e+01 5.311611175537109375e+00 6.775523662567139560e+00 1.199499416351318359e+01 1.746188879013061523e+00 -5.870386958122253418e-01 1.207185459136962713e+01 2.822303295135498047e+00 -3.588526248931884766e+00 1.674395680427551047e+00 7.404905796051025391e+00 4.021362304687499112e+00 1.709980607032775657e+00 6.415817260742187500e+00
-6.099524497985839844e-01 8.830224037170410156e+00 6.162749290466308594e+00 9.657762646675118745e-01 8.810308456420898438e+00 7.374683380126953125e+00 4.135110855102539062e+00 4.631045341491699219e+00 2.946923732757568359e+00 2.473934888839721680e+00 4.694993019104003018e+00 1.669614672660827859e+00 -1.870201230049133301e+00 5.699264049530028409e+00 6.123766422271728516e+00 2.265575170516968218e+00 5.701799392700195312e+00 7.732419013977050781e+00 5.104440212249756748e+00 7.769376277923583096e+00 3.036216020584106445e+00 9.512430429458617054e-01 7.948822021484374112e+00 1.358651399612426758e+00 -2.095617294311523438e+00 7.743994235992431641e+00 6.916605949401855469e+00 2.386081218719483310e+00 7.708588600158690518e+00 6.637611389160156250e+00 5.455264091491700995e+00 6.013407707214355469e+00 2.227448463439941406e+00 8.967134952545171567e-01 6.077946662902832031e+00 2.294873476028442383e+00 -8.645541667938229091e-01 4.440253257751463956e+00 7.246503829956055576e+00 1.137766957283020242e+00 4.614711284637451172e+00 6.507428646087646484e+00 4.277011394500732422e+00 9.213484764099119317e+00 1.958706855773926003e+00 2.156746625900268555e+00 9.034635543823242188e+00 2.687334537506103516e+00 7.649929523468017578e+00 2.785386323928832564e+00 1.268324851989746094e+00 -1.338679313659668191e+00 2.745051383972167969e+00 3.279642343521118608e+00 -4.414007186889648438e+00 1.095518016815185369e+01 7.910770893096923828e+00 4.745875835418700284e+00 1.086991405487060547e+01 5.978134632110595703e+00 6.867003440856933594e+00 1.327819442749023260e+01 1.224348098039627075e-01 -5.657456517219542347e-01 1.327668285369873047e+01 4.332528114318847656e+00 -3.894742488861084428e+00 3.176356852054595947e-01 8.954643249511718750e+00 3.901229143142700195e+00 4.090482592582702637e-01 4.677263736724853516e+00 6.267305850982666016e+00 1.537379980087280273e+00 8.078544735908508301e-01 1.805356442928315319e-01 1.334218263626098411e+00 3.868004322052001953e+00 -2.812571048736571822e+00 1.217747402191162109e+01 8.405214309692382812e+00 3.043750286102295810e+00 1.215174293518066406e+01 5.319191455841064453e+00 6.748772621154785156e+00 1.199453830718994141e+01 1.733438491821289062e+00 -5.897325873374940075e-01 1.209093475341796875e+01 2.829589843750000000e+00 -3.596664428710937944e+00 1.684463858604430930e+00 7.424796581268311435e+00 4.056737899780273438e+00 1.732276678085327148e+00 6.430454730987549716e+00
-6.006258130073542922e-01 8.820268630981445312e+00 6.134189128875732422e+00 9.578140974044796474e-01 8.797570228576658380e+00 7.353096485137939453e+00 4.179782390594482422e+00 4.590821266174316406e+00 2.959289312362670898e+00 2.518761396408081055e+00 4.674502849578857422e+00 1.671611189842224121e+00 -1.861259818077087624e+00 5.683686733245848721e+00 6.149513244628906250e+00 2.267222166061401367e+00 5.687161445617675781e+00 7.744463920593261719e+00 5.071478366851806641e+00 7.743127346038817471e+00 3.023317575454711914e+00 9.265581369400025524e-01 7.969802379608153409e+00 1.333519816398620605e+00 -2.105040788650512251e+00 7.785851001739501065e+00 6.895993232727050781e+00 2.381346464157104936e+00 7.738005161285399502e+00 6.615513801574707031e+00 5.480003356933594638e+00 5.994293212890624112e+00 2.244950056076049805e+00 8.995868563652040795e-01 6.080738544464111328e+00 2.255403518676757812e+00 -8.793850541114800468e-01 4.430969238281249112e+00 7.267124176025390625e+00 1.134290218353271706e+00 4.653431892395019531e+00 6.502700805664062500e+00 4.315421104431153232e+00 9.225629806518554688e+00 1.958356142044067605e+00 2.155851125717163086e+00 8.996530532836914062e+00 2.704223871231079102e+00 7.653393745422362393e+00 2.799717664718627930e+00 1.270912170410156472e+00 -1.323055744171142578e+00 2.742051124572753462e+00 3.275285005569458452e+00 -4.429214000701904297e+00 1.097338676452636719e+01 7.925690174102783203e+00 4.753277778625488281e+00 1.086579895019531250e+01 6.013636589050292969e+00 6.839468479156494141e+00 1.327416133880615234e+01 1.069615483283996582e-01 -5.378584265708923340e-01 1.326982212066650391e+01 4.328011989593505859e+00 -3.962086677551269531e+00 3.044879138469695490e-01 8.955014228820800781e+00 3.870841979980468750e+00 4.210480451583861750e-01 4.660133838653565341e+00 6.289680004119873047e+00 1.553527832031250000e+00 8.306840062141418457e-01 2.015325576066971103e-01 1.308835268020629661e+00 3.868604421615600586e+00 -2.808420419692993164e+00 1.218125724792480469e+01 8.403036117553710938e+00 3.009171009063721147e+00 1.214810848236083807e+01 5.327867984771728516e+00 6.718060493469240058e+00 1.199516010284423650e+01 1.718793630599975586e+00 -5.932723283767700195e-01 1.210835647583007635e+01 2.831836223602294922e+00 -3.599994421005249468e+00 1.695678353309631348e+00 7.451889514923095703e+00 4.091008663177491123e+00 1.759187817573547363e+00 6.442199707031250888e+00
-5.864757895469665527e-01 8.798670768737792969e+00 5.997209072113037109e+00 9.343623518943788842e-01 8.788560867309570312e+00 7.319860935211181641e+00 4.303543567657471591e+00 4.458551406860351562e+00 2.996023654937744141e+00 2.663086175918579546e+00 4.609076023101805752e+00 1.682016849517822266e+00 -1.863953113555908203e+00 5.656663894653320312e+00 6.220220088958741123e+00 2.283200502395629883e+00 5.660511970520019531e+00 7.770836830139161044e+00 4.980573177337646484e+00 7.676390171051025391e+00 3.027225732803344727e+00 8.685027956962584339e-01 8.034015655517578125e+00 1.274735331535339355e+00 -2.149520397186279297e+00 7.899208545684813565e+00 6.834354400634765625e+00 2.396035909652710405e+00 7.798902988433837002e+00 6.545079231262207031e+00 5.589448928833007812e+00 5.902876853942870206e+00 2.275311231613159180e+00 9.212850332260131836e-01 6.077621459960936612e+00 2.109813451766967773e+00 -9.080582261085506923e-01 4.398337841033935547e+00 7.349942207336426669e+00 1.117800354957581010e+00 4.761826515197753906e+00 6.488799095153808594e+00 4.403018474578857422e+00 9.259918212890625000e+00 1.951381444931030273e+00 2.154585123062133789e+00 8.880242347717283380e+00 2.733081340789795366e+00 7.715161323547364169e+00 2.873887062072753906e+00 1.278979420661926492e+00 -1.261938095092773438e+00 2.729035615921020508e+00 3.287359476089477983e+00 -4.469199657440185547e+00 1.102871417999267578e+01 8.012105941772460938e+00 4.748554229736329013e+00 1.085637187957763494e+01 6.084510803222656250e+00 6.753357410430909091e+00 1.325836086273193182e+01 6.468816101551055908e-02 -4.804032146930696245e-01 1.322706127166748047e+01 4.376515865325927734e+00 -4.167310714721679688e+00 2.498175948858260831e-01 8.961875915527343750e+00 3.758625030517577681e+00 4.372641444206237793e-01 4.625554561614990234e+00 6.302989006042481357e+00 1.576697826385498047e+00 8.879336714744567871e-01 3.042092621326444313e-01 1.294367194175720215e+00 3.847542047500610352e+00 -2.817697763442992720e+00 1.221523094177245916e+01 8.410738945007324219e+00 2.927975177764892134e+00 1.216067123413085760e+01 5.353392124176025391e+00 6.624242305755616123e+00 1.200938606262206854e+01 1.673913955688476562e+00 -6.105939745903012916e-01 1.211530113220214666e+01 2.776671409606933594e+00 -3.556033849716186079e+00 1.721668004989624023e+00 7.580857276916503906e+00 4.134967803955078125e+00 1.857771039009094016e+00 6.425292015075683594e+00
-5.878216624259950951e-01 8.794972419738769531e+00 5.941023349761963779e+00 9.274684190750123181e-01 8.797235488891601562e+00 7.320327758789062500e+00 4.333256244659423828e+00 4.418948650360107422e+00 3.004608154296875000e+00 2.707247495651245117e+00 4.588639736175537109e+00 1.686292886734009011e+00 -1.877529144287109375e+00 5.656824588775633877e+00 6.237658023834228516e+00 2.293042182922363725e+00 5.660453319549559659e+00 7.773550033569335938e+00 4.959216117858887607e+00 7.660959720611572266e+00 3.043039798736572266e+00 8.603256344795230381e-01 8.051082611083984375e+00 1.266607999801635742e+00 -2.166734695434569868e+00 7.925862312316894531e+00 6.816460609436035156e+00 2.410804033279419389e+00 7.806170940399169034e+00 6.526004314422608310e+00 5.633217811584473544e+00 5.866900920867919922e+00 2.277184009552001953e+00 9.323758482933045544e-01 6.072087764739990234e+00 2.058584213256835938e+00 -9.090678691864012562e-01 4.389184951782226562e+00 7.380059242248536044e+00 1.109703898429870383e+00 4.787090301513671875e+00 6.485710620880127841e+00 4.416574954986571377e+00 9.265426635742185724e+00 1.948790192604065163e+00 2.153804063796997070e+00 8.848836898803709161e+00 2.730849981307983398e+00 7.748781204223633701e+00 2.902412652969360352e+00 1.281482577323913796e+00 -1.238007307052612527e+00 2.723706245422362837e+00 3.300058603286743164e+00 -4.477483272552490234e+00 1.104340076446533025e+01 8.049430847167968750e+00 4.735526084899902344e+00 1.085505962371825994e+01 6.092225551605224609e+00 6.727966785430908203e+00 1.325425624847411932e+01 5.517908185720444419e-02 -4.722003638744351472e-01 1.320819664001464844e+01 4.407111644744873047e+00 -4.223203659057617188e+00 2.307201176881789884e-01 8.964829444885253906e+00 3.719485998153686079e+00 4.334007203578948975e-01 4.624162673950195312e+00 6.288869857788086826e+00 1.575873017311096191e+00 8.994973301887513317e-01 3.451922833919527922e-01 1.310244441032409668e+00 3.834367990493774414e+00 -2.830603361129760298e+00 1.223383045196533203e+01 8.419643402099609375e+00 2.915362358093261275e+00 1.217446136474609375e+01 5.360070228576660156e+00 6.598427295684814453e+00 1.201809597015380859e+01 1.661817073822021706e+00 -6.190677881240843616e-01 1.210229778289794922e+01 2.741497278213501421e+00 -3.532338857650756836e+00 1.724441289901733176e+00 7.631859779357911044e+00 4.131747245788573331e+00 1.891905665397643821e+00 6.403837680816651279e+00
-5.916943550109857730e-01 8.792075157165527344e+00 5.882475376129150391e+00 9.213029146194458008e-01 8.810088157653808594e+00 7.322894096374511719e+00 4.357800483703614169e+00 4.382558345794676846e+00 3.010697603225708452e+00 2.749736070632934570e+00 4.568380832672119141e+00 1.690621495246887207e+00 -1.896835327148437500e+00 5.660405158996581143e+00 6.253397941589355469e+00 2.305170059204102007e+00 5.664698123931883877e+00 7.772621154785156250e+00 4.942678928375244141e+00 7.647539138793944424e+00 3.063566923141479492e+00 8.579731583595274769e-01 8.065501213073730469e+00 1.264224410057067871e+00 -2.183652400970458540e+00 7.947599411010741299e+00 6.798764705657959873e+00 2.428391933441162109e+00 7.808820247650146484e+00 6.510915756225585938e+00 5.679329395294189453e+00 5.830262184143066406e+00 2.276981115341186523e+00 9.451619386672975853e-01 6.064311504364013672e+00 2.006170749664306641e+00 -9.063878655433652565e-01 4.382669925689697266e+00 7.409940242767333984e+00 1.099998593330383523e+00 4.806724548339843750e+00 6.484037399291993076e+00 4.423122882843017578e+00 9.266091346740722656e+00 1.947398543357849121e+00 2.152512550354003906e+00 8.821761131286621094e+00 2.722587585449218750e+00 7.785117149353028232e+00 2.929288864135742188e+00 1.284303665161132812e+00 -1.211567759513854758e+00 2.717823982238769087e+00 3.315756797790527788e+00 -4.483355522155761719e+00 1.105543136596679510e+01 8.087458610534667969e+00 4.716729640960693359e+00 1.085507583618163885e+01 6.095271110534667969e+00 6.703898429870605469e+00 1.325202751159667791e+01 4.796641692519188621e-02 -4.668490886688232977e-01 1.318887138366699041e+01 4.438041210174560547e+00 -4.272017955780029297e+00 2.127654552459716797e-01 8.967274665832519531e+00 3.679943561553954634e+00 4.253197908401489258e-01 4.628323078155517578e+00 6.269513130187988281e+00 1.573523402214050293e+00 9.078380465507507324e-01 3.864226937294008013e-01 1.331501722335815208e+00 3.819970369338989702e+00 -2.848872900009154829e+00 1.225576400756835760e+01 8.432045936584472656e+00 2.909734964370727539e+00 1.219292068481445312e+01 5.365996360778808594e+00 6.575839519500733310e+00 1.202828311920165838e+01 1.651720404624938965e+00 -6.293962001800538220e-01 1.208491230010986328e+01 2.702716350555419922e+00 -3.510901927947998491e+00 1.724170684814453125e+00 7.683578968048095703e+00 4.125491619110108310e+00 1.925814986228942871e+00 6.378266334533691406e+00
-5.932229757308954410e-01 8.791311264038085938e+00 5.865619659423828125e+00 9.197279214859009899e-01 8.814344406127929688e+00 7.323641300201416016e+00 4.363954544067382812e+00 4.372833251953125000e+00 3.011937379837036133e+00 2.761592149734497070e+00 4.562581062316893643e+00 1.691826224327087402e+00 -1.903300881385803445e+00 5.661926746368408203e+00 6.257739067077636719e+00 2.309020519256592241e+00 5.666682720184325284e+00 7.771614551544189453e+00 4.938872814178465909e+00 7.643971920013427734e+00 3.070057392120361328e+00 8.583574295043947533e-01 8.069103240966796875e+00 1.264547467231750710e+00 -2.188289403915405273e+00 7.952967166900634766e+00 6.793624877929687500e+00 2.433706045150756836e+00 7.808907985687254971e+00 6.507504940032958984e+00 5.692786693572998047e+00 5.819821834564208984e+00 2.276724576950073242e+00 9.491038322448727138e-01 6.061671257019042969e+00 1.991003513336181641e+00 -9.050299525260927513e-01 4.381472587585449219e+00 7.418279647827148438e+00 1.096928119659423606e+00 4.811318397521971768e+00 6.483889579772950107e+00 4.423785686492919922e+00 9.265241622924804688e+00 1.947338342666625977e+00 2.152046442031860796e+00 8.814873695373533380e+00 2.719158649444580522e+00 7.795693397521972656e+00 2.936400175094604048e+00 1.285241961479187234e+00 -1.203494668006896751e+00 2.716044425964355025e+00 3.320636510848999023e+00 -4.484627723693847656e+00 1.105829906463622869e+01 8.098132133483886719e+00 4.710327148437499112e+00 1.085537242889404119e+01 6.095587253570556641e+00 6.697227001190185547e+00 1.325185775756835938e+01 4.631364718079566956e-02 -4.656326174736020729e-01 1.318341064453124822e+01 4.446382522583007812e+00 -4.284620285034179688e+00 2.079910337924957275e-01 8.967821121215820312e+00 3.668639898300170898e+00 4.223150014877318781e-01 4.630539417266845703e+00 6.263361930847167969e+00 1.572774767875671387e+00 9.096660614013672985e-01 3.979837596416473389e-01 1.338169693946838157e+00 3.815794467926025391e+00 -2.855084419250487837e+00 1.226259899139404119e+01 8.436243057250976562e+00 2.909342527389526367e+00 1.219899559020995916e+01 5.367591381072998047e+00 6.570024490356445312e+00 1.203140068054199219e+01 1.649261951446533203e+00 -6.327293515205383301e-01 1.207939815521240234e+01 2.691363573074340820e+00 -3.505619287490844727e+00 1.723560690879821777e+00 7.698262691497802734e+00 4.123507499694823331e+00 1.935365557670593262e+00 6.370476245880126953e+00
-5.988497138023374244e-01 8.789003372192381036e+00 5.815454959869385654e+00 9.156368970870975010e-01 8.828230857849121094e+00 7.325048446655273438e+00 4.380387306213378906e+00 4.345633029937744141e+00 3.014249563217163086e+00 2.796453475952148438e+00 4.545053005218504971e+00 1.695230364799499734e+00 -1.924952983856200950e+00 5.667524814605712002e+00 6.270726680755615234e+00 2.321473360061645952e+00 5.674654006958007812e+00 7.766427040100097656e+00 4.929978370666503906e+00 7.633779048919676846e+00 3.090630769729614258e+00 8.622382283210754395e-01 8.078446388244628906e+00 1.267986059188842995e+00 -2.201346635818481889e+00 7.966946601867674893e+00 6.777683258056640625e+00 2.449880123138427734e+00 7.807775974273680752e+00 6.500053882598876953e+00 5.733544349670409268e+00 5.788865089416503906e+00 2.275851488113403320e+00 9.616418480873105690e-01 6.052601337432860440e+00 1.945062637329101562e+00 -8.995948433876034267e-01 4.380080223083496094e+00 7.442409992218018466e+00 1.086947083473206677e+00 4.822463512420653409e+00 6.484500408172607422e+00 4.422745704650878906e+00 9.259593009948730469e+00 1.948323726654052956e+00 2.150430440902709517e+00 8.796604156494140625e+00 2.706204414367675781e+00 7.827320098876952237e+00 2.955706119537353516e+00 1.288627982139587402e+00 -1.177760958671569824e+00 2.710468769073486328e+00 3.335925340652465820e+00 -4.487499237060546875e+00 1.106517028808593750e+01 8.128961563110351562e+00 4.688488960266112393e+00 1.085715961456298650e+01 6.095717906951904297e+00 6.677661895751953125e+00 1.325289726257324041e+01 4.239838570356369712e-02 -4.623804688453674316e-01 1.316746520996093572e+01 4.468947887420654297e+00 -4.318790912628173828e+00 1.949749588966369351e-01 8.968959808349609375e+00 3.634940147399903676e+00 4.117259085178375244e-01 4.639863491058349609e+00 6.243978500366211826e+00 1.570701837539672630e+00 9.137300848960876465e-01 4.315256178379059948e-01 1.358968615531921387e+00 3.803448677062988281e+00 -2.876316785812377930e+00 1.228448390960693359e+01 8.450578689575195312e+00 2.911150217056274414e+00 1.221912479400634588e+01 5.372268676757812500e+00 6.554394245147705078e+00 1.204112529754638672e+01 1.643170118331909180e+00 -6.438501477241517224e-01 1.206192302703857422e+01 2.657379150390625000e+00 -3.492769718170166016e+00 1.720409035682678001e+00 7.741654872894287109e+00 4.117635250091553623e+00 1.963424086570739524e+00 6.346345901489257812e+00
-6.010571122169496849e-01 8.788194656372070312e+00 5.799020767211914062e+00 9.145134091377260521e-01 8.833141326904296875e+00 7.325063705444335938e+00 4.385251522064209873e+00 4.337258338928221768e+00 3.014541864395141602e+00 2.807847023010253906e+00 4.539146423339843750e+00 1.696265935897827148e+00 -1.932861328125000222e+00 5.669677257537841797e+00 6.275121212005615234e+00 2.325891971588134322e+00 5.677976131439208984e+00 7.763933658599853516e+00 4.927866935729981357e+00 7.630514621734618252e+00 3.097739219665527344e+00 8.644098639488219105e-01 8.081055641174316406e+00 1.269895672798156960e+00 -2.205349206924438477e+00 7.970921516418457031e+00 6.772132873535157138e+00 2.455240964889527699e+00 7.807007789611815518e+00 6.498571395874023438e+00 5.747180938720703125e+00 5.778717994689941406e+00 2.275612592697143555e+00 9.660464525222777210e-01 6.049185276031493252e+00 1.929616808891296609e+00 -8.973762392997737258e-01 4.380435943603514737e+00 7.450086116790772373e+00 1.083373904228210671e+00 4.825320243835449219e+00 6.485090255737304688e+00 4.421433925628662109e+00 9.256614685058591974e+00 1.949092864990234375e+00 2.149837493896483931e+00 8.791345596313476562e+00 2.701054096221923828e+00 7.837714672088623047e+00 2.961377143859863281e+00 1.289996623992919922e+00 -1.168653845787048340e+00 2.708541154861450195e+00 3.341151714324951172e+00 -4.488177299499511719e+00 1.106684017181396484e+01 8.138710021972656250e+00 4.680368423461913174e+00 1.085807514190673650e+01 6.095612525939941406e+00 6.671267509460449219e+00 1.325382518768310547e+01 4.142947867512702942e-02 -4.613498449325559858e-01 1.316234207153320135e+01 4.475444793701171875e+00 -4.328971862792968750e+00 1.911494433879852017e-01 8.969161987304687500e+00 3.623839139938354492e+00 4.077526032924652100e-01 4.643832683563232422e+00 6.237344264984131748e+00 1.570131182670593262e+00 9.146201610565185547e-01 4.422233998775484953e-01 1.366024494171142578e+00 3.799459695816040039e+00 -2.884238719940185103e+00 1.229220199584960760e+01 8.455932617187500000e+00 2.912673473358155185e+00 1.222639846801757812e+01 5.373838424682617188e+00 6.549811840057373047e+00 1.204444980621337713e+01 1.641599774360656738e+00 -6.479526758193970837e-01 1.205588245391845525e+01 2.646220207214355913e+00 -3.489606618881225142e+00 1.718945384025573730e+00 7.755827903747558594e+00 4.115797042846679688e+00 1.972534775733947532e+00 6.338143825531005859e+00
-6.022206544876098633e-01 8.787776947021484375e+00 5.790881633758544922e+00 9.140012264251708984e-01 8.835636138916015625e+00 7.324958801269531250e+00 4.387579441070557529e+00 4.333206176757812500e+00 3.014597415924072266e+00 2.813502073287964311e+00 4.536178112030029297e+00 1.696759462356567383e+00 -1.936935186386107954e+00 5.670798778533934659e+00 6.277342796325684482e+00 2.328145503997802734e+00 5.679761409759521484e+00 7.762536048889160156e+00 4.926973342895508701e+00 7.628901958465575284e+00 3.101322174072266069e+00 8.656535148620607689e-01 8.082262992858886719e+00 1.270981669425964355e+00 -2.207275152206420898e+00 7.972783088684081143e+00 6.769303321838378906e+00 2.457898855209350586e+00 7.806561470031737393e+00 6.498029232025146484e+00 5.753996372222901279e+00 5.773683547973632812e+00 2.275516510009765625e+00 9.682891964912415661e-01 6.047401428222655362e+00 1.921871542930603027e+00 -8.961980938911440209e-01 4.380780696868896484e+00 7.453845024108886719e+00 1.081543326377869541e+00 4.826591014862060547e+00 6.485463142395020419e+00 4.420604228973388672e+00 9.254910469055175781e+00 1.949567675590515137e+00 2.149535417556762695e+00 8.788878440856933594e+00 2.698334217071533203e+00 7.842867374420166016e+00 2.964056730270385298e+00 1.290734052658081055e+00 -1.163997650146484375e+00 2.707566499710082564e+00 3.343775272369384766e+00 -4.488470554351806641e+00 1.106755256652831854e+01 8.143466949462890625e+00 4.676157474517822266e+00 1.085859489440917791e+01 6.095550060272216797e+00 6.668090820312500888e+00 1.325440883636474609e+01 4.100623726844787598e-02 -4.608330428600309059e-01 1.315982151031494141e+01 4.478471279144287109e+00 -4.333838462829589844e+00 1.893459856510162354e-01 8.969228744506835938e+00 3.618325233459472656e+00 4.056991040706633966e-01 4.645971298217773438e+00 6.234015464782714844e+00 1.569876909255981223e+00 9.149792790412902832e-01 4.474669992923737127e-01 1.369554519653320312e+00 3.797498464584350586e+00 -2.888353109359741211e+00 1.229613399505615234e+01 8.458717346191406250e+00 2.913593053817748579e+00 1.223012638092040838e+01 5.374634742736817294e+00 6.547642230987547940e+00 1.204612064361572088e+01 1.640906095504760742e+00 -6.500815153121949352e-01 1.205283451080322088e+01 2.640693426132202593e+00 -3.488250732421875000e+00 1.718141078948974609e+00 7.762850284576416016e+00 4.114912033081054688e+00 1.977038025856017844e+00 6.334026813507080078e+00