-8.893652343750000000e+03
-8.892287109375000000e+03
-8.891884765625000000e+03
-8.890798828125000000e+03
-8.889570312500000000e+03
-8.888074218750000000e+03
-8.888039062500000000e+03
-8.887891601562500000e+03
-8.887826171875000000e+03
-8.887591796875000000e+03
-8.887506835937500000e+03
-8.887464843750000000e+03
-8.887222656250000000e+03
-8.886970703125000000e+03
-8.886886718750000000e+03
-8.886829101562500000e+03
-8.887547851562500000e+03
-8.887661132812500000e+03
-8.888042968750000000e+03
-8.888196289062500000e+03
-8.888220703125000000e+03
-8.888234375000000000e+03
-8.888239257812500000e+03
-8.888235351562500000e+03
-8.888233398437500000e+03
-8.888230468750000000e+03
-8.888227539062500000e+03
-8.888225585937500000e+03
-8.888249023437500000e+03
-8.888250976562500000e+03
-8.888172851562500000e+03
-8.888116210937500000e+03
-8.886696289062500000e+03
-8.885672851562500000e+03
-8.885603515625000000e+03
-8.885182617187500000e+03
-8.885083984375000000e+03
-8.884993164062500000e+03
-8.884830078125000000e+03
-8.884716796875000000e+03
-8.884678710937500000e+03
-8.884559570312500000e+03
-8.884329101562500000e+03
-8.884096679687500000e+03
-8.883739257812500000e+03
-8.883660156250000000e+03
-8.883499023437500000e+03
-8.883256835937500000e+03
-8.883035156250000000e+03
-8.882968750000000000e+03
-8.882732421875000000e+03
-8.882695312500000000e+03
-8.882737304687500000e+03
-8.883596679687500000e+03
-8.883943359375000000e+03
-8.884208984375000000e+03
-8.884326171875000000e+03
-8.883763671875000000e+03
-8.883250976562500000e+03
-8.882675781250000000e+03
-8.882248046875000000e+03
-8.882187500000000000e+03
-8.882069335937500000e+03
-8.881890625000000000e+03
-8.881571289062500000e+03
-8.881438476562500000e+03
-8.881247070312500000e+03
-8.880985351562500000e+03
-8.880833984375000000e+03
-8.881004882812500000e+03
-8.881108398437500000e+03
-8.881201171875000000e+03
-8.881213867187500000e+03
-8.881260742187500000e+03
-8.881760742187500000e+03
-8.881895507812500000e+03
-8.882508789062500000e+03
-8.882490234375000000e+03
-8.879325195312500000e+03
-8.879134765625000000e+03
-8.878957031250000000e+03
-8.878721679687500000e+03
-8.878875000000000000e+03
-8.881228515625000000e+03
-8.881778320312500000e+03
-8.881706054687500000e+03
-8.881491210937500000e+03
-8.880997070312500000e+03
-8.879757812500000000e+03
-8.879664062500000000e+03
-8.879394531250000000e+03
-8.879042968750000000e+03
-8.878537109375000000e+03
-8.878460937500000000e+03
-8.878386718750000000e+03
-8.878191406250000000e+03
-8.877919921875000000e+03
-8.877902343750000000e+03
-8.877888671875000000e+03
-8.877877929687500000e+03
-8.877887695312500000e+03
-8.877958984375000000e+03
-8.878019531250000000e+03
-8.878273437500000000e+03
-8.878583007812500000e+03
-8.878682617187500000e+03
-8.878879882812500000e+03
-8.878831054687500000e+03
-8.878790039062500000e+03
-8.878691406250000000e+03
-8.878665039062500000e+03
-8.878493164062500000e+03
-8.878427734375000000e+03
-8.878083984375000000e+03
-8.877760742187500000e+03
-8.877743164062500000e+03
-8.877731445312500000e+03
-8.877739257812500000e+03
-8.877836914062500000e+03
-8.877833007812500000e+03
-8.877717773437500000e+03
-8.877625976562500000e+03
-8.876779296875000000e+03
-8.876249023437500000e+03
-8.876083984375000000e+03
-8.875795898437500000e+03
-8.875736328125000000e+03
-8.875682617187500000e+03
-8.876161132812500000e+03
-8.876263671875000000e+03
-8.877446289062500000e+03
-8.877539062500000000e+03
-8.877783203125000000e+03
-8.878018554687500000e+03
-8.878087890625000000e+03
-8.878010742187500000e+03
-8.877756835937500000e+03
-8.877568359375000000e+03
-8.877626953125000000e+03
-8.877891601562500000e+03
-8.878072265625000000e+03
-8.877598632812500000e+03
-8.877529296875000000e+03
-8.877455078125000000e+03
-8.877122070312500000e+03
-8.876674804687500000e+03
-8.876132812500000000e+03
-8.875773437500000000e+03
-8.875697265625000000e+03
-8.875595703125000000e+03
-8.875360351562500000e+03
-8.875233398437500000e+03
-8.875079101562500000e+03
-8.875049804687500000e+03
-8.874961914062500000e+03
-8.874925781250000000e+03
-8.874880859375000000e+03
-8.874683593750000000e+03
-8.874548828125000000e+03
-8.874399414062500000e+03
-8.874245117187500000e+03
-8.874093750000000000e+03
-8.873831054687500000e+03
-8.873816406250000000e+03
-8.874278320312500000e+03
-8.875659179687500000e+03
-8.876295898437500000e+03
-8.877073242187500000e+03
-8.877273437500000000e+03
-8.877269531250000000e+03
-8.876554687500000000e+03
-8.876512695312500000e+03
-8.876424804687500000e+03
-8.876394531250000000e+03
-8.876410156250000000e+03
-8.876424804687500000e+03
-8.876759765625000000e+03
-8.876802734375000000e+03
-8.876886718750000000e+03
-8.877254882812500000e+03
-8.877193359375000000e+03
-8.877080078125000000e+03
-8.876179687500000000e+03
-8.875879882812500000e+03
-8.875667968750000000e+03
-8.875235351562500000e+03
-8.875275390625000000e+03
-8.876718750000000000e+03
-8.876733398437500000e+03
-8.876737304687500000e+03
-8.876396484375000000e+03
-8.876399414062500000e+03
-8.876448242187500000e+03
-8.876499023437500000e+03
-8.876912109375000000e+03
-8.877015625000000000e+03
-8.877118164062500000e+03
-8.877046875000000000e+03
-8.877044921875000000e+03
-8.876998046875000000e+03
-8.876422851562500000e+03
-8.876024414062500000e+03
-8.875648437500000000e+03
-8.875351562500000000e+03
-8.875323242187500000e+03
-8.875403320312500000e+03
-8.875963867187500000e+03
-8.876879882812500000e+03
-8.877161132812500000e+03
-8.877225585937500000e+03
-8.877488281250000000e+03
-8.877171875000000000e+03
-8.877128906250000000e+03
-8.877122070312500000e+03
-8.877464843750000000e+03
-8.877629882812500000e+03
-8.878790039062500000e+03
-8.878877929687500000e+03
-8.879204101562500000e+03
-8.879129882812500000e+03
-8.878882812500000000e+03
-8.878797851562500000e+03
-8.878706054687500000e+03
-8.878144531250000000e+03
-8.877485351562500000e+03
-8.877132812500000000e+03
-8.876778320312500000e+03
-8.876254882812500000e+03
-8.876245117187500000e+03
-8.876279296875000000e+03
-8.876168945312500000e+03
-8.875688476562500000e+03
-8.875641601562500000e+03
-8.875839843750000000e+03
-8.875888671875000000e+03
-8.875914062500000000e+03
-8.876164062500000000e+03
-8.876199218750000000e+03
-8.876628906250000000e+03
-8.876965820312500000e+03
-8.877057617187500000e+03
-8.877333984375000000e+03
-8.877566406250000000e+03
-8.877708984375000000e+03
-8.876023437500000000e+03
-8.875422851562500000e+03
-8.875419921875000000e+03
-8.875449218750000000e+03
-8.875426757812500000e+03
-8.875399414062500000e+03
-8.875365234375000000e+03
-8.874968750000000000e+03
-8.874828125000000000e+03
-8.874571289062500000e+03
-8.874518554687500000e+03
-8.874400390625000000e+03
-8.874375976562500000e+03
-8.874499023437500000e+03
-8.874541015625000000e+03
-8.874586914062500000e+03
-8.875064453125000000e+03
-8.875136718750000000e+03
-8.875195312500000000e+03
-8.875281250000000000e+03
-8.875294921875000000e+03
-8.875290039062500000e+03
-8.875293945312500000e+03
-8.875678710937500000e+03
-8.876180664062500000e+03
-8.876219726562500000e+03
-8.876256835937500000e+03
-8.876376953125000000e+03
-8.876400390625000000e+03
-8.876230468750000000e+03
-8.876073242187500000e+03
-8.875865234375000000e+03
-8.875848632812500000e+03
-8.875961914062500000e+03
-8.876135742187500000e+03
-8.875802734375000000e+03
-8.875756835937500000e+03
-8.875039062500000000e+03
-8.874989257812500000e+03
-8.874866210937500000e+03
-8.874892578125000000e+03
-8.875916992187500000e+03
-8.876312500000000000e+03
-8.876434570312500000e+03
-8.876301757812500000e+03
-8.876130859375000000e+03
-8.875533203125000000e+03
-8.875454101562500000e+03
-8.875157226562500000e+03
-8.875376953125000000e+03
-8.875441406250000000e+03
-8.875571289062500000e+03
-8.875690429687500000e+03
-8.875037109375000000e+03
-8.874824218750000000e+03
-8.874722656250000000e+03
-8.874430664062500000e+03
-8.874344726562500000e+03
-8.875259765625000000e+03
-8.875423828125000000e+03
-8.876410156250000000e+03
-8.877166992187500000e+03
-8.877001953125000000e+03
-8.876891601562500000e+03
-8.876327148437500000e+03
-8.875924804687500000e+03
-8.875744140625000000e+03
-8.875804687500000000e+03
-8.876958984375000000e+03
-8.877145507812500000e+03
-8.876749023437500000e+03
-8.876662109375000000e+03
-8.875936523437500000e+03
-8.875828125000000000e+03
-8.875717773437500000e+03
-8.875003906250000000e+03
-8.874357421875000000e+03
-8.874072265625000000e+03
-8.873863281250000000e+03
-8.873816406250000000e+03
-8.874343750000000000e+03
-8.874415039062500000e+03
-8.874570312500000000e+03
-8.874651367187500000e+03
-8.874826171875000000e+03
-8.876158203125000000e+03
-8.876419921875000000e+03
-8.877477539062500000e+03
-8.878171875000000000e+03
-8.877916992187500000e+03
-8.876895507812500000e+03
-8.876523437500000000e+03
-8.875833007812500000e+03
-8.875198242187500000e+03
-8.875184570312500000e+03
-8.875404296875000000e+03
-8.875849609375000000e+03
-8.874707031250000000e+03
-8.874405273437500000e+03
-8.874007812500000000e+03
-8.873119140625000000e+03
-8.872917968750000000e+03
-8.873456054687500000e+03
-8.873608398437500000e+03
-8.874160156250000000e+03
-8.874246093750000000e+03
-8.874399414062500000e+03
-8.874827148437500000e+03
-8.874800781250000000e+03
-8.874775390625000000e+03
-8.874230468750000000e+03
-8.874906250000000000e+03
-8.875997070312500000e+03
-8.876133789062500000e+03
-8.876521484375000000e+03
-8.876754882812500000e+03
-8.877121093750000000e+03
-8.877029296875000000e+03
-8.876945312500000000e+03
-8.875301757812500000e+03
-8.875287109375000000e+03
-8.875770507812500000e+03
-8.875864257812500000e+03
-8.876270507812500000e+03
-8.876741210937500000e+03
-8.877028320312500000e+03
-8.877183593750000000e+03
-8.877407226562500000e+03
-8.876858398437500000e+03
-8.876700195312500000e+03
-8.876657226562500000e+03
-8.876583007812500000e+03
-8.876568359375000000e+03
-8.876568359375000000e+03
-8.877478515625000000e+03
-8.877605468750000000e+03
-8.877708007812500000e+03
-8.877832031250000000e+03
-8.878005859375000000e+03
-8.878137695312500000e+03
-8.878173828125000000e+03
-8.878169921875000000e+03
-8.878158203125000000e+03
-8.878136718750000000e+03
-8.878068359375000000e+03
-8.877219726562500000e+03
-8.877328125000000000e+03
-8.877365234375000000e+03
-8.877642578125000000e+03
-8.877739257812500000e+03
-8.877927734375000000e+03
-8.877967773437500000e+03
-8.877627929687500000e+03
-8.876580078125000000e+03
-8.876710937500000000e+03
-8.876832031250000000e+03
-8.876883789062500000e+03
-8.876960937500000000e+03
-8.876982421875000000e+03
-8.876990234375000000e+03
-8.876847656250000000e+03
-8.876290039062500000e+03
-8.876170898437500000e+03
-8.876048828125000000e+03
-8.875806640625000000e+03
-8.875340820312500000e+03
-8.875259765625000000e+03
-8.876131835937500000e+03
-8.876172851562500000e+03
-8.876265625000000000e+03
-8.876252929687500000e+03
-8.876247070312500000e+03
-8.876225585937500000e+03
-8.876293945312500000e+03
-8.876394531250000000e+03
-8.876480468750000000e+03
-8.876664062500000000e+03
-8.876681640625000000e+03
-8.876706054687500000e+03
-8.877209960937500000e+03
-8.877303710937500000e+03
-8.877810546875000000e+03
-8.877915039062500000e+03
-8.877807617187500000e+03
-8.877556640625000000e+03
-8.877668945312500000e+03
-8.877832031250000000e+03
-8.877849609375000000e+03
-8.876669921875000000e+03
-8.876287109375000000e+03
-8.876338867187500000e+03
-8.876468750000000000e+03
-8.876663085937500000e+03
-8.876541992187500000e+03
-8.876464843750000000e+03
-8.876326171875000000e+03
-8.876308593750000000e+03
-8.876240234375000000e+03
-8.876224609375000000e+03
-8.876109375000000000e+03
-8.876069335937500000e+03
-8.875989257812500000e+03
-8.875969726562500000e+03
-8.875784179687500000e+03
-8.875707031250000000e+03
-8.875514648437500000e+03
-8.875364257812500000e+03
-8.875200195312500000e+03
-8.875524414062500000e+03
-8.875593750000000000e+03
-8.875911132812500000e+03
-8.876003906250000000e+03
-8.876071289062500000e+03
-8.876269531250000000e+03
-8.876364257812500000e+03
-8.876558593750000000e+03
-8.876693359375000000e+03
-8.876916015625000000e+03
-8.877174804687500000e+03
-8.877301757812500000e+03
-8.877291015625000000e+03
-8.877280273437500000e+03
-8.878256835937500000e+03
-8.878881835937500000e+03
-8.878977539062500000e+03
-8.879061523437500000e+03
-8.879133789062500000e+03
-8.879195312500000000e+03
-8.879407226562500000e+03
-8.879401367187500000e+03
-8.879320312500000000e+03
-8.877922851562500000e+03
-8.877839843750000000e+03
-8.877875000000000000e+03
-8.878010742187500000e+03
-8.878024414062500000e+03
-8.878047851562500000e+03
-8.878053710937500000e+03
-8.878072265625000000e+03
-8.878123046875000000e+03
-8.878138671875000000e+03
-8.878149414062500000e+03
-8.878152343750000000e+03
-8.878138671875000000e+03
-8.878107421875000000e+03
-8.878014648437500000e+03
-8.877852539062500000e+03
-8.877610351562500000e+03
-8.877095703125000000e+03
-8.876681640625000000e+03
-8.876904296875000000e+03
-8.877765625000000000e+03
-8.878051757812500000e+03
-8.877730468750000000e+03
-8.877475585937500000e+03
-8.877379882812500000e+03
-8.876741210937500000e+03
-8.876535156250000000e+03
-8.876110351562500000e+03
-8.875940429687500000e+03
-8.875801757812500000e+03
-8.875737304687500000e+03
-8.875682617187500000e+03
-8.875600585937500000e+03
-8.875341796875000000e+03
-8.875254882812500000e+03
-8.875248046875000000e+03
-8.875292968750000000e+03
-8.875415039062500000e+03
-8.875448242187500000e+03
-8.875545898437500000e+03
-8.875573242187500000e+03
-8.875453125000000000e+03
-8.875156250000000000e+03
-8.875091796875000000e+03
-8.875228515625000000e+03
-8.875447265625000000e+03
-8.875587890625000000e+03
-8.876402343750000000e+03
-8.876549804687500000e+03
-8.876958984375000000e+03
-8.877017578125000000e+03
-8.876198242187500000e+03
-8.876083984375000000e+03
-8.875743164062500000e+03
-8.876046875000000000e+03
-8.876744140625000000e+03
-8.876886718750000000e+03
-8.877021484375000000e+03
-8.877367187500000000e+03
-8.877390625000000000e+03
-8.877307617187500000e+03
-8.876657226562500000e+03
-8.876531250000000000e+03
-8.876401367187500000e+03
-8.874865234375000000e+03
-8.874939453125000000e+03
-8.875132812500000000e+03
-8.875151367187500000e+03
-8.875168945312500000e+03
-8.875005859375000000e+03
-8.874979492187500000e+03
-8.874925781250000000e+03
-8.875020507812500000e+03
-8.875299804687500000e+03
-8.876795898437500000e+03
-8.876772460937500000e+03
-8.876681640625000000e+03
-8.875906250000000000e+03
-8.874944335937500000e+03
-8.874745117187500000e+03
-8.874661132812500000e+03
-8.874518554687500000e+03
-8.874458007812500000e+03
-8.874416992187500000e+03
-8.874931640625000000e+03
-8.875200195312500000e+03
-8.875481445312500000e+03
-8.875739257812500000e+03
-8.875869140625000000e+03
-8.876059570312500000e+03
-8.876409179687500000e+03
-8.876450195312500000e+03
-8.876467773437500000e+03
-8.876271484375000000e+03
-8.876238281250000000e+03
-8.876166992187500000e+03
-8.875942382812500000e+03
-8.875743164062500000e+03
-8.875559570312500000e+03
-8.874883789062500000e+03
-8.875395507812500000e+03
-8.876010742187500000e+03
-8.876205078125000000e+03
-8.876405273437500000e+03
-8.876463867187500000e+03
-8.876451171875000000e+03
-8.875959960937500000e+03
-8.875223632812500000e+03
-8.875108398437500000e+03
-8.875062500000000000e+03
-8.875024414062500000e+03
-8.874990234375000000e+03
-8.874903320312500000e+03
-8.874836914062500000e+03
-8.874837890625000000e+03
-8.875843750000000000e+03
-8.875971679687500000e+03
-8.875999023437500000e+03
-8.876019531250000000e+03
-8.876041015625000000e+03
-8.875998046875000000e+03
-8.875983398437500000e+03
-8.875952148437500000e+03
-8.875903320312500000e+03
-8.875855468750000000e+03
-8.875744140625000000e+03
-8.875708984375000000e+03
-8.875648437500000000e+03
-8.875585937500000000e+03
-8.875566406250000000e+03
-8.875550781250000000e+03
-8.875597656250000000e+03
-8.875911132812500000e+03
-8.876754882812500000e+03
-8.876605468750000000e+03
-8.876596679687500000e+03
-8.876752929687500000e+03
-8.876942382812500000e+03
-8.876791015625000000e+03
-8.876558593750000000e+03
-8.876136718750000000e+03
-8.876920898437500000e+03
-8.877384765625000000e+03
-8.877572265625000000e+03
-8.877657226562500000e+03
-8.877842773437500000e+03
-8.877861328125000000e+03
-8.877755859375000000e+03
-8.877302734375000000e+03
-8.877005859375000000e+03
-8.876859375000000000e+03
-8.876798828125000000e+03
-8.876763671875000000e+03
-8.876724609375000000e+03
-8.876632812500000000e+03
-8.875894531250000000e+03
-8.875167968750000000e+03
-8.875078125000000000e+03
-8.875043945312500000e+03
-8.875281250000000000e+03
-8.876389648437500000e+03
-8.876667968750000000e+03
-8.877902343750000000e+03
-8.877939453125000000e+03
-8.877541992187500000e+03
-8.876718750000000000e+03
-8.876375976562500000e+03
-8.877129882812500000e+03
-8.877233398437500000e+03
-8.877321289062500000e+03
-8.877443359375000000e+03
-8.877412109375000000e+03
-8.877026367187500000e+03
-8.876800781250000000e+03
-8.876727539062500000e+03
-8.876695312500000000e+03
-8.876663085937500000e+03
-8.876595703125000000e+03
-8.876257812500000000e+03
-8.876082031250000000e+03
-8.875678710937500000e+03
-8.875547851562500000e+03
-8.875464843750000000e+03
-8.875441406250000000e+03
-8.875439453125000000e+03
-8.875436523437500000e+03
-8.875474609375000000e+03
-8.875491210937500000e+03
-8.875631835937500000e+03
-8.875972656250000000e+03
-8.876028320312500000e+03
-8.876192382812500000e+03
-8.876555664062500000e+03
-8.876752929687500000e+03
-8.876878906250000000e+03
-8.876976562500000000e+03
-8.877009765625000000e+03
-8.877044921875000000e+03
-8.877286132812500000e+03
-8.877291992187500000e+03
-8.877261718750000000e+03
-8.877234375000000000e+03
-8.876955078125000000e+03
-8.875299804687500000e+03
-8.875184570312500000e+03
-8.874859375000000000e+03
-8.875500976562500000e+03
-8.876051757812500000e+03
-8.876701171875000000e+03
-8.876716796875000000e+03
-8.876671875000000000e+03
-8.876644531250000000e+03
-8.876290039062500000e+03
-8.876191406250000000e+03
-8.876046875000000000e+03
-8.875835937500000000e+03
-8.875893554687500000e+03
-8.875878906250000000e+03
-8.875875000000000000e+03
-8.875879882812500000e+03
-8.875905273437500000e+03
-8.875948242187500000e+03
-8.876231445312500000e+03
-8.876435546875000000e+03
-8.876812500000000000e+03
-8.876845703125000000e+03
-8.876800781250000000e+03
-8.876715820312500000e+03
-8.876680664062500000e+03
-8.876383789062500000e+03
-8.876273437500000000e+03
-8.876220703125000000e+03
-8.876203125000000000e+03
-8.876344726562500000e+03
-8.876427734375000000e+03
-8.876604492187500000e+03
-8.876721679687500000e+03
-8.876804687500000000e+03
-8.876831054687500000e+03
-8.876821289062500000e+03
-8.876780273437500000e+03
-8.876618164062500000e+03
-8.876435546875000000e+03
-8.876213867187500000e+03
-8.875571289062500000e+03
-8.875018554687500000e+03
-8.874888671875000000e+03
-8.874604492187500000e+03
-8.874514648437500000e+03
-8.874442382812500000e+03
-8.874443359375000000e+03
-8.874460937500000000e+03
-8.874579101562500000e+03
-8.874747070312500000e+03
-8.875069335937500000e+03
-8.875125000000000000e+03
-8.875293945312500000e+03
-8.875602539062500000e+03
-8.875656250000000000e+03
-8.875720703125000000e+03
-8.875702148437500000e+03
-8.875625000000000000e+03
-8.875581054687500000e+03
-8.875834960937500000e+03
-8.876272460937500000e+03
-8.877062500000000000e+03
-8.876460937500000000e+03
-8.876375000000000000e+03
-8.876291992187500000e+03
-8.876242187500000000e+03
-8.876223632812500000e+03
-8.876118164062500000e+03
-8.876123046875000000e+03
-8.876195312500000000e+03
-8.876267578125000000e+03
-8.876283203125000000e+03
-8.876372070312500000e+03
-8.876461914062500000e+03
-8.876851562500000000e+03
-8.876931640625000000e+03
-8.877195312500000000e+03
-8.877335937500000000e+03
-8.877440429687500000e+03
-8.877474609375000000e+03
-8.877708984375000000e+03
-8.877520507812500000e+03
-8.877211914062500000e+03
-8.877146484375000000e+03
-8.877082031250000000e+03
-8.876757812500000000e+03
-8.876780273437500000e+03
-8.876537109375000000e+03
-8.876311523437500000e+03
-8.876020507812500000e+03
-8.875988281250000000e+03
-8.875958007812500000e+03
-8.875859375000000000e+03
-8.875855468750000000e+03
-8.875764648437500000e+03
-8.875763671875000000e+03
-8.875806640625000000e+03
-8.875845703125000000e+03
-8.876194335937500000e+03
-8.876709960937500000e+03
-8.877310546875000000e+03
-8.877451171875000000e+03
-8.877448242187500000e+03
-8.877214843750000000e+03
-8.877032226562500000e+03
-8.877065429687500000e+03
-8.877065429687500000e+03
-8.877667968750000000e+03
-8.877757812500000000e+03
-8.877759765625000000e+03
-8.877761718750000000e+03
-8.877685546875000000e+03
-8.877551757812500000e+03
-8.877468750000000000e+03
-8.876696289062500000e+03
-8.876743164062500000e+03
-8.876797851562500000e+03
-8.877324218750000000e+03
-8.877534179687500000e+03
-8.877590820312500000e+03
-8.877737304687500000e+03
-8.877725585937500000e+03
-8.877628906250000000e+03
-8.877119140625000000e+03
-8.876228515625000000e+03
-8.875990234375000000e+03
-8.876056640625000000e+03
-8.876162109375000000e+03
-8.876198242187500000e+03
-8.876293945312500000e+03
-8.876318359375000000e+03
-8.876299804687500000e+03
-8.876244140625000000e+03
-8.876211914062500000e+03
-8.875976562500000000e+03
-8.875618164062500000e+03
-8.875528320312500000e+03
-8.875492187500000000e+03
-8.875523437500000000e+03
-8.875529296875000000e+03
-8.875567382812500000e+03
-8.875567382812500000e+03
-8.875353515625000000e+03
-8.875225585937500000e+03
-8.875005859375000000e+03
-8.874347656250000000e+03
-8.874441406250000000e+03
-8.874657226562500000e+03
-8.874833984375000000e+03
-8.874926757812500000e+03
-8.875019531250000000e+03
-8.875205078125000000e+03
-8.875292968750000000e+03
-8.875377929687500000e+03
-8.875458984375000000e+03
-8.875534179687500000e+03
-8.875603515625000000e+03
-8.876130859375000000e+03
-8.876030273437500000e+03
-8.875981445312500000e+03
-8.875923828125000000e+03
-8.875697265625000000e+03
-8.875393554687500000e+03
-8.874242187500000000e+03
-8.873953125000000000e+03
-8.873899414062500000e+03
-8.873935546875000000e+03
-8.874688476562500000e+03
-8.874804687500000000e+03
-8.875190429687500000e+03
-8.875239257812500000e+03
-8.875159179687500000e+03
-8.875125976562500000e+03
-8.875042968750000000e+03
-8.874993164062500000e+03
-8.874807617187500000e+03
-8.874169921875000000e+03
-8.873331054687500000e+03
-8.872981445312500000e+03
-8.872392578125000000e+03
-8.872475585937500000e+03
-8.872876953125000000e+03
-8.873669921875000000e+03
-8.873993164062500000e+03
-8.874597656250000000e+03
-8.874773437500000000e+03
-8.874900390625000000e+03
-8.874867187500000000e+03
-8.874904296875000000e+03
-8.874897460937500000e+03
-8.874808593750000000e+03
-8.874531250000000000e+03
-8.873962890625000000e+03
-8.873765625000000000e+03
-8.873895507812500000e+03
-8.873949218750000000e+03
-8.874055664062500000e+03
-8.874228515625000000e+03
-8.874057617187500000e+03
-8.873997070312500000e+03
-8.873961914062500000e+03
-8.874032226562500000e+03
-8.874270507812500000e+03
-8.874427734375000000e+03
-8.874956054687500000e+03
-8.875521484375000000e+03
-8.876025390625000000e+03
-8.875747070312500000e+03
-8.876573242187500000e+03
-8.876615234375000000e+03
-8.876648437500000000e+03
-8.876749023437500000e+03
-8.876755859375000000e+03
-8.876766601562500000e+03
-8.876776367187500000e+03
-8.876576171875000000e+03
-8.876548828125000000e+03
-8.876499023437500000e+03
-8.876423828125000000e+03
-8.876419921875000000e+03
-8.876455078125000000e+03
-8.876626953125000000e+03
-8.876740234375000000e+03
-8.876877929687500000e+03
-8.877041015625000000e+03
-8.877527343750000000e+03
-8.877946289062500000e+03
-8.878508789062500000e+03
-8.878463867187500000e+03
-8.878401367187500000e+03
-8.878017578125000000e+03
-8.877633789062500000e+03
-8.877645507812500000e+03
-8.877700195312500000e+03
-8.877836914062500000e+03
-8.878242187500000000e+03
-8.878249023437500000e+03
-8.878007812500000000e+03
-8.877662109375000000e+03
-8.877415039062500000e+03
-8.877366210937500000e+03
-8.877354492187500000e+03
-8.877436523437500000e+03
-8.877456054687500000e+03
-8.877693359375000000e+03
-8.877761718750000000e+03
-8.877784179687500000e+03
-8.877809570312500000e+03
-8.877894531250000000e+03
-8.877967773437500000e+03
-8.878291992187500000e+03
-8.878549804687500000e+03
-8.878663085937500000e+03
-8.878747070312500000e+03
-8.878802734375000000e+03
-8.878787109375000000e+03
-8.878763671875000000e+03
-8.878731445312500000e+03
-8.878644531250000000e+03
-8.878536132812500000e+03
-8.878346679687500000e+03
-8.878077148437500000e+03
-8.877724609375000000e+03
-8.877585937500000000e+03
-8.877579101562500000e+03
-8.877591796875000000e+03
-8.877599609375000000e+03
-8.877604492187500000e+03
-8.877080078125000000e+03
-8.876672851562500000e+03
-8.876458007812500000e+03
-8.875952148437500000e+03
-8.875620117187500000e+03
-8.875369140625000000e+03
-8.875231445312500000e+03
-8.875160156250000000e+03
-8.875128906250000000e+03
-8.875046875000000000e+03
-8.875023437500000000e+03
-8.874904296875000000e+03
-8.874944335937500000e+03
-8.875085937500000000e+03
-8.875856445312500000e+03
-8.876405273437500000e+03
-8.876665039062500000e+03
-8.876679687500000000e+03
-8.876625976562500000e+03
-8.876544921875000000e+03
-8.876496093750000000e+03
-8.876484375000000000e+03
-8.876189453125000000e+03
-8.876155273437500000e+03
-8.876184570312500000e+03
-8.876478515625000000e+03
-8.876892578125000000e+03
-8.877064453125000000e+03
-8.877142578125000000e+03
-8.876959960937500000e+03
-8.876680664062500000e+03
-8.876501953125000000e+03
-8.876447265625000000e+03
-8.876258789062500000e+03
-8.876220703125000000e+03
-8.876269531250000000e+03
-8.876380859375000000e+03
-8.876463867187500000e+03
-8.876625976562500000e+03
-8.877123046875000000e+03
-8.877201171875000000e+03
-8.877159179687500000e+03
-8.877127929687500000e+03
-8.876969726562500000e+03
-8.876919921875000000e+03
-8.876968750000000000e+03
-8.877695312500000000e+03
-8.878233398437500000e+03
-8.878576171875000000e+03
-8.878666992187500000e+03
-8.878744140625000000e+03
-8.878885742187500000e+03
-8.878900390625000000e+03
