2.269693851470947266e+00 2.038038223981857300e-01 9.917187094688415527e-01 2.038038223981857300e-01 2.673372983932495117e+00 2.327173799276351929e-01 9.917187094688415527e-01 2.327173799276351929e-01 1.783564567565917969e+00
5.252056598663330078e+00 2.275325059890747070e+00 3.413229942321777344e+00 2.275325059890747070e+00 4.593564987182617188e+00 3.281980037689208984e+00 3.413229942321777344e+00 3.281980037689208984e+00 6.877274513244628906e+00
6.012777328491210938e+00 2.551954507827758789e+00 3.841871976852416992e+00 2.551954507827758789e+00 5.280911445617675781e+00 3.804551601409912109e+00 3.841871976852416992e+00 3.804551601409912109e+00 7.881062507629394531e+00
7.805132865905761719e+00 3.139114141464233398e+00 4.807126045227050781e+00 3.139114141464233398e+00 6.905441284179687500e+00 5.015329360961914062e+00 4.807126045227050781e+00 5.015329360961914062e+00 1.014850807189941406e+01
8.978592872619628906e+00 3.557262420654296875e+00 5.564929485321044922e+00 3.557262420654296875e+00 7.947413444519042969e+00 6.191834926605224609e+00 5.564929485321044922e+00 6.191834926605224609e+00 1.183022975921630859e+01
-8.200781345367431641e-01 2.468889713287353516e+00 3.235407590866088867e+00 2.468889713287353516e+00 -2.270708799362182617e+00 7.149214267730712891e+00 3.235407590866088867e+00 7.149214267730712891e+00 2.395400285720825195e+00
-6.405790328979492188e+00 1.877270936965942383e+00 1.856235146522521973e+00 1.877270936965942383e+00 -7.885533332824707031e+00 6.939414978027343750e+00 1.856235146522521973e+00 6.939414978027343750e+00 -3.999894380569458008e+00
-1.132124423980712891e+01 1.484334707260131836e+00 7.333319187164306641e-01 1.484334707260131836e+00 -1.260588169097900391e+01 6.703663825988769531e+00 7.333319187164306641e-01 6.703663825988769531e+00 -9.990509986877441406e+00
-1.251235866546630859e+01 1.417084693908691406e+00 4.666445553302764893e-01 1.417084693908691406e+00 -1.370721149444580078e+01 6.629399299621582031e+00 4.666445553302764893e-01 6.629399299621582031e+00 -1.150286674499511719e+01
-1.539806747436523438e+01 1.299728035926818848e+00 -2.102883309125900269e-01 1.299728035926818848e+00 -1.618786048889160156e+01 6.372656345367431641e+00 -2.102883309125900269e-01 6.372656345367431641e+00 -1.534919929504394531e+01
-1.612521934509277344e+01 1.288816213607788086e+00 -3.920953571796417236e-01 1.288816213607788086e+00 -1.674893379211425781e+01 6.270926475524902344e+00 -3.920953571796417236e-01 6.270926475524902344e+00 -1.635252571105957031e+01
-1.644325828552246094e+01 1.288046121597290039e+00 -4.779071509838104248e-01 1.288046121597290039e+00 -1.698021316528320312e+01 6.213693618774414062e+00 -4.779071509838104248e-01 6.213693618774414062e+00 -1.680444908142089844e+01
-1.768135833740234375e+01 1.333114624023437500e+00 -9.469098448753356934e-01 1.333114624023437500e+00 -1.761014556884765625e+01 5.805410861968994141e+00 -9.469098448753356934e-01 5.805410861968994141e+00 -1.880427360534667969e+01
-1.765345954895019531e+01 1.444765448570251465e+00 -1.401309370994567871e+00 1.444765448570251465e+00 -1.664222335815429688e+01 5.009359836578369141e+00 -1.401309370994567871e+00 5.009359836578369141e+00 -1.952169227600097656e+01
-1.696382331848144531e+01 1.470030546188354492e+00 -1.593315124511718750e+00 1.470030546188354492e+00 -1.544745445251464844e+01 4.474408149719238281e+00 -1.593315124511718750e+00 4.474408149719238281e+00 -1.911922645568847656e+01
-1.366313743591308594e+01 1.262404680252075195e+00 -2.081770181655883789e+00 1.262404680252075195e+00 -1.123175334930419922e+01 2.827787160873413086e+00 -2.081770181655883789e+00 2.827787160873413086e+00 -1.630060195922851562e+01
-4.916114330291748047e+00 -1.116867303848266602e+00 -3.977500915527343750e+00 -1.116867303848266602e+00 -3.922039747238159180e+00 -1.064548850059509277e+00 -3.977500915527343750e+00 -1.064548850059509277e+00 -7.685516357421875000e+00
-4.046669006347656250e+00 -1.451456546783447266e+00 -4.279057025909423828e+00 -1.451456546783447266e+00 -3.344389438629150391e+00 -1.530337095260620117e+00 -4.279057025909423828e+00 -1.530337095260620117e+00 -6.724181175231933594e+00
-9.081366658210754395e-01 -2.620912313461303711e+00 -5.469661712646484375e+00 -2.620912313461303711e+00 -1.009909272193908691e+00 -3.357721090316772461e+00 -5.469661712646484375e+00 -3.357721090316772461e+00 -2.930881977081298828e+00
1.009843111038208008e+00 -3.232210874557495117e+00 -6.203630447387695312e+00 -3.232210874557495117e+00 8.818989396095275879e-01 -4.477194786071777344e+00 -6.203630447387695312e+00 -4.477194786071777344e+00 -2.889503240585327148e-01
1.546051979064941406e+00 -3.381006479263305664e+00 -6.394570827484130859e+00 -3.381006479263305664e+00 1.496594905853271484e+00 -4.740798950195312500e+00 -6.394570827484130859e+00 -4.740798950195312500e+00 5.165283679962158203e-01
2.000032663345336914e+00 -3.496410369873046875e+00 -6.549709320068359375e+00 -3.496410369873046875e+00 2.089770555496215820e+00 -4.939563751220703125e+00 -6.549709320068359375e+00 -4.939563751220703125e+00 1.264495611190795898e+00
2.517853736877441406e+00 -3.605693101882934570e+00 -6.696460247039794922e+00 -3.605693101882934570e+00 2.911426544189453125e+00 -5.091623783111572266e+00 -6.696460247039794922e+00 -5.091623783111572266e+00 2.282294988632202148e+00
2.759270668029785156e+00 -3.630355119705200195e+00 -6.751323223114013672e+00 -3.630355119705200195e+00 3.370240688323974609e+00 -5.086937427520751953e+00 -6.751323223114013672e+00 -5.086937427520751953e+00 2.871153354644775391e+00
2.851727724075317383e+00 -3.627100229263305664e+00 -6.771385192871093750e+00 -3.627100229263305664e+00 3.566202878952026367e+00 -5.053315639495849609e+00 -6.771385192871093750e+00 -5.053315639495849609e+00 3.135560035705566406e+00
2.912528991699218750e+00 -3.609077453613281250e+00 -6.782856464385986328e+00 -3.609077453613281250e+00 3.735296964645385742e+00 -4.997465610504150391e+00 -6.782856464385986328e+00 -4.997465610504150391e+00 3.377339839935302734e+00
2.942847013473510742e+00 -3.574337482452392578e+00 -6.786447048187255859e+00 -3.574337482452392578e+00 3.877089500427246094e+00 -4.918777465820312500e+00 -6.786447048187255859e+00 -4.918777465820312500e+00 3.599668025970458984e+00
2.941212177276611328e+00 -3.524269819259643555e+00 -6.779693603515625000e+00 -3.524269819259643555e+00 3.994385957717895508e+00 -4.817041873931884766e+00 -6.779693603515625000e+00 -4.817041873931884766e+00 3.807726860046386719e+00
1.354597806930541992e+00 -2.166822910308837891e+00 -6.270840167999267578e+00 -2.166822910308837891e+00 3.432063817977905273e+00 -2.709274768829345703e+00 -6.270840167999267578e+00 -2.709274768829345703e+00 4.945987224578857422e+00
-1.281047821044921875e+00 -2.327746599912643433e-01 -5.602354049682617188e+00 -2.327746599912643433e-01 1.535890698432922363e+00 -4.109441637992858887e-01 -5.602354049682617188e+00 -4.109441637992858887e-01 5.012344360351562500e+00
-3.664943695068359375e+00 1.451120734214782715e+00 -5.043059349060058594e+00 1.451120734214782715e+00 -8.840294182300567627e-02 1.345129489898681641e+00 -5.043059349060058594e+00 1.345129489898681641e+00 4.827558040618896484e+00
-4.676757335662841797e+00 2.139677524566650391e+00 -4.812781810760498047e+00 2.139677524566650391e+00 -7.376956939697265625e-01 2.017499685287475586e+00 -4.812781810760498047e+00 2.017499685287475586e+00 4.698876857757568359e+00
-1.635868644714355469e+01 6.977288722991943359e+00 -2.785988330841064453e+00 6.977288722991943359e+00 -8.577321052551269531e+00 3.306691884994506836e+00 -2.785988330841064453e+00 3.306691884994506836e+00 -1.596595764160156250e+00
-1.853782272338867188e+01 7.040133476257324219e+00 -9.901760220527648926e-01 7.040133476257324219e+00 -1.201949405670166016e+01 3.393206298351287842e-01 -9.901760220527648926e-01 3.393206298351287842e-01 -5.122294425964355469e+00
-1.856540107727050781e+01 7.024724483489990234e+00 -8.060406446456909180e-01 7.024724483489990234e+00 -1.228942108154296875e+01 1.543975025415420532e-01 -8.060406446456909180e-01 1.543975025415420532e-01 -5.256597995758056641e+00
-1.828713417053222656e+01 6.847313404083251953e+00 6.303555369377136230e-01 6.847313404083251953e+00 -1.435182094573974609e+01 -9.585825800895690918e-01 6.303555369377136230e-01 -9.585825800895690918e-01 -5.792193412780761719e+00
-1.806196975708007812e+01 6.765801906585693359e+00 1.086329698562622070e+00 6.765801906585693359e+00 -1.496637821197509766e+01 -1.230571985244750977e+00 1.086329698562622070e+00 -1.230571985244750977e+00 -5.825461387634277344e+00
-1.776862144470214844e+01 6.682144165039062500e+00 1.567464470863342285e+00 6.682144165039062500e+00 -1.557940673828125000e+01 -1.488923192024230957e+00 1.567464470863342285e+00 -1.488923192024230957e+00 -5.812266349792480469e+00
-1.694630813598632812e+01 6.510317325592041016e+00 2.576767206192016602e+00 6.510317325592041016e+00 -1.670535087585449219e+01 -1.939650058746337891e+00 2.576767206192016602e+00 -1.939650058746337891e+00 -5.632285118103027344e+00
-1.611057090759277344e+01 6.364228725433349609e+00 3.351202249526977539e+00 6.364228725433349609e+00 -1.737687683105468750e+01 -2.245023727416992188e+00 3.351202249526977539e+00 -2.245023727416992188e+00 -5.377088069915771484e+00
-1.578429317474365234e+01 6.318341255187988281e+00 3.613407850265502930e+00 6.318341255187988281e+00 -1.755977439880371094e+01 -2.346178293228149414e+00 3.613407850265502930e+00 -2.346178293228149414e+00 -5.261196613311767578e+00
-1.466395473480224609e+01 6.171572208404541016e+00 4.393673896789550781e+00 6.171572208404541016e+00 -1.794134902954101562e+01 -2.615217685699462891e+00 4.393673896789550781e+00 -2.615217685699462891e+00 -4.820670604705810547e+00
-1.227110099792480469e+01 5.893224716186523438e+00 5.676323413848876953e+00 5.893224716186523438e+00 -1.796622848510742188e+01 -3.029372215270996094e+00 5.676323413848876953e+00 -3.029372215270996094e+00 -3.748938798904418945e+00
-9.864910125732421875e+00 5.592177867889404297e+00 6.599839687347412109e+00 5.592177867889404297e+00 -1.737038993835449219e+01 -3.362670421600341797e+00 6.599839687347412109e+00 -3.362670421600341797e+00 -2.595358371734619141e+00
-6.338851928710937500e+00 4.997346878051757812e+00 7.525512695312500000e+00 4.997346878051757812e+00 -1.588813304901123047e+01 -3.846974372863769531e+00 7.525512695312500000e+00 -3.846974372863769531e+00 -7.817258238792419434e-01
-5.583168506622314453e+00 4.831584930419921875e+00 7.666353702545166016e+00 4.831584930419921875e+00 -1.551250267028808594e+01 -3.953049659729003906e+00 7.666353702545166016e+00 -3.953049659729003906e+00 -3.874700069427490234e-01
-4.050572872161865234e+00 4.431768894195556641e+00 7.899182796478271484e+00 4.431768894195556641e+00 -1.469530868530273438e+01 -4.185909271240234375e+00 7.899182796478271484e+00 -4.185909271240234375e+00 4.268789887428283691e-01
-1.764775991439819336e+00 3.648739099502563477e+00 8.148238182067871094e+00 3.648739099502563477e+00 -1.335470676422119141e+01 -4.599366188049316406e+00 8.148238182067871094e+00 -4.599366188049316406e+00 1.666491031646728516e+00
3.931011855602264404e-01 2.624701261520385742e+00 8.232421875000000000e+00 2.624701261520385742e+00 -1.193233776092529297e+01 -5.032392978668212891e+00 8.232421875000000000e+00 -5.032392978668212891e+00 2.834659099578857422e+00
1.067617893218994141e+00 2.238491296768188477e+00 8.222439765930175781e+00 2.238491296768188477e+00 -1.145362854003906250e+01 -5.172383308410644531e+00 8.222439765930175781e+00 -5.172383308410644531e+00 3.193721532821655273e+00
4.074753761291503906e+00 1.424063090234994888e-02 7.926319599151611328e+00 1.424063090234994888e-02 -9.207733154296875000e+00 -5.750305652618408203e+00 7.926319599151611328e+00 -5.750305652618408203e+00 4.622176647186279297e+00
5.048723220825195312e+00 -9.887154698371887207e-01 7.686037540435791016e+00 -9.887154698371887207e-01 -8.434545516967773438e+00 -5.877731323242187500e+00 7.686037540435791016e+00 -5.877731323242187500e+00 4.967550754547119141e+00
6.500530242919921875e+00 -3.012664556503295898e+00 7.051445960998535156e+00 -3.012664556503295898e+00 -7.200901508331298828e+00 -5.913846492767333984e+00 7.051445960998535156e+00 -5.913846492767333984e+00 5.242509841918945312e+00
7.236180305480957031e+00 -7.527107238769531250e+00 4.861353874206542969e+00 -7.527107238769531250e+00 -4.906182289123535156e+00 -4.374141693115234375e+00 4.861353874206542969e+00 -4.374141693115234375e+00 3.643549442291259766e+00
6.912531375885009766e+00 -8.358315467834472656e+00 4.110219001770019531e+00 -8.358315467834472656e+00 -3.836560487747192383e+00 -3.573948144912719727e+00 4.110219001770019531e+00 -3.573948144912719727e+00 2.945613384246826172e+00
6.815609455108642578e+00 -9.052035331726074219e+00 3.289258480072021484e+00 -9.052035331726074219e+00 -2.260964632034301758e+00 -2.690652370452880859e+00 3.289258480072021484e+00 -2.690652370452880859e+00 2.487067222595214844e+00
7.746327400207519531e+00 -1.039190864562988281e+01 1.548675894737243652e+00 -1.039190864562988281e+01 2.357612848281860352e+00 -8.661641478538513184e-01 1.548675894737243652e+00 -8.661641478538513184e-01 2.487335443496704102e+00
1.079664802551269531e+01 -1.255278110504150391e+01 -1.340066671371459961e+00 -1.255278110504150391e+01 1.102424716949462891e+01 1.896707534790039062e+00 -1.340066671371459961e+00 1.896707534790039062e+00 4.057441234588623047e+00
1.259617996215820312e+01 -1.332204055786132812e+01 -2.990857601165771484e+00 -1.332204055786132812e+01 1.569469642639160156e+01 3.293967485427856445e+00 -2.990857601165771484e+00 3.293967485427856445e+00 5.550693035125732422e+00
1.377117061614990234e+01 -1.317280960083007812e+01 -4.659415721893310547e+00 -1.317280960083007812e+01 1.966884613037109375e+01 4.355133056640625000e+00 -4.659415721893310547e+00 4.355133056640625000e+00 7.572752475738525391e+00
1.330023384094238281e+01 -1.161124420166015625e+01 -5.609518527984619141e+00 -1.161124420166015625e+01 2.122405242919921875e+01 4.657462120056152344e+00 -5.609518527984619141e+00 4.657462120056152344e+00 9.798421859741210938e+00
1.308794307708740234e+01 -1.122993373870849609e+01 -5.702587127685546875e+00 -1.122993373870849609e+01 2.123135375976562500e+01 4.645592689514160156e+00 -5.702587127685546875e+00 4.645592689514160156e+00 1.018645668029785156e+01
1.258157348632812500e+01 -1.038946437835693359e+01 -5.823465824127197266e+00 -1.038946437835693359e+01 2.105021095275878906e+01 4.571199417114257812e+00 -5.823465824127197266e+00 4.571199417114257812e+00 1.096900463104248047e+01
1.170726871490478516e+01 -9.042679786682128906e+00 -5.862547874450683594e+00 -9.042679786682128906e+00 2.033224487304687500e+01 4.374888896942138672e+00 -5.862547874450683594e+00 4.374888896942138672e+00 1.214211273193359375e+01
1.006848335266113281e+01 -6.802202701568603516e+00 -5.539916992187500000e+00 -6.802202701568603516e+00 1.829010581970214844e+01 3.966861486434936523e+00 -5.539916992187500000e+00 3.966861486434936523e+00 1.406094455718994141e+01
9.362421989440917969e+00 -5.956578254699707031e+00 -5.269556045532226562e+00 -5.956578254699707031e+00 1.729456901550292969e+01 3.804523229598999023e+00 -5.269556045532226562e+00 3.804523229598999023e+00 1.480065345764160156e+01
8.275420188903808594e+00 -4.748062133789062500e+00 -4.724388599395751953e+00 -4.748062133789062500e+00 1.567786026000976562e+01 3.580548048019409180e+00 -4.724388599395751953e+00 3.580548048019409180e+00 1.583192729949951172e+01
6.464518547058105469e+00 -2.976735115051269531e+00 -3.497164726257324219e+00 -2.976735115051269531e+00 1.276593112945556641e+01 3.247755050659179688e+00 -3.497164726257324219e+00 3.247755050659179688e+00 1.718154144287109375e+01
4.435075759887695312e+00 -1.064039468765258789e+00 -1.529979944229125977e+00 -1.064039468765258789e+00 8.251718521118164062e+00 2.926932334899902344e+00 -1.529979944229125977e+00 2.926932334899902344e+00 1.801143455505371094e+01
3.810128927230834961e+00 1.185513377189636230e+00 1.936108767986297607e-01 1.185513377189636230e+00 1.838109374046325684e+00 3.125102043151855469e+00 1.936108767986297607e-01 3.125102043151855469e+00 1.712189674377441406e+01
4.679317474365234375e+00 2.073388099670410156e+00 3.463468551635742188e-01 2.073388099670410156e+00 -1.620525717735290527e-01 3.468565940856933594e+00 3.463468551635742188e-01 3.468565940856933594e+00 1.625871086120605469e+01
6.882290840148925781e+00 3.187669515609741211e+00 1.307571679353713989e-01 3.187669515609741211e+00 -2.110872983932495117e+00 4.041095733642578125e+00 1.307571679353713989e-01 4.041095733642578125e+00 1.492442607879638672e+01
7.432800769805908203e+00 3.444750547409057617e+00 4.332408681511878967e-02 3.444750547409057617e+00 -2.412023305892944336e+00 4.157261848449707031e+00 4.332408681511878967e-02 4.157261848449707031e+00 1.464582157135009766e+01
1.051915168762207031e+01 4.793718814849853516e+00 -4.550784826278686523e-01 4.793718814849853516e+00 -3.383737087249755859e+00 4.788724422454833984e+00 -4.550784826278686523e-01 4.788724422454833984e+00 1.306913185119628906e+01
1.576921463012695312e+01 7.999832153320312500e+00 -8.636018633842468262e-01 7.999832153320312500e+00 -1.786746740341186523e+00 6.155173778533935547e+00 -8.636018633842468262e-01 6.155173778533935547e+00 8.242156028747558594e+00
1.556824302673339844e+01 7.868124485015869141e+00 -7.867956757545471191e-01 7.868124485015869141e+00 -1.205448508262634277e+00 6.176021575927734375e+00 -7.867956757545471191e-01 6.176021575927734375e+00 7.753061294555664062e+00
1.232859802246093750e+01 3.970347881317138672e+00 -1.862550824880599976e-01 3.970347881317138672e+00 4.319219112396240234e+00 4.982782363891601562e+00 -1.862550824880599976e-01 4.982782363891601562e+00 7.349120616912841797e+00
1.208981132507324219e+01 3.087424755096435547e+00 -2.180157974362373352e-02 3.087424755096435547e+00 5.531339645385742188e+00 4.579298973083496094e+00 -2.180157974362373352e-02 4.579298973083496094e+00 7.842872142791748047e+00
2.193435096740722656e+01 -1.129236578941345215e+00 3.284533023834228516e+00 -1.129236578941345215e+00 2.539328384399414062e+01 -2.024810791015625000e+00 3.284533023834228516e+00 -2.024810791015625000e+00 1.882634353637695312e+01
2.269769287109375000e+01 -1.068954706192016602e+00 3.439765214920043945e+00 -1.068954706192016602e+00 2.626513481140136719e+01 -2.239049196243286133e+00 3.439765214920043945e+00 -2.239049196243286133e+00 1.930836868286132812e+01
2.342070198059082031e+01 -9.914243221282958984e-01 3.582237243652343750e+00 -9.914243221282958984e-01 2.706513023376464844e+01 -2.417128086090087891e+00 3.582237243652343750e+00 -2.417128086090087891e+00 1.973484039306640625e+01
2.597659683227539062e+01 -1.241382241249084473e+00 3.682446956634521484e+00 -1.241382241249084473e+00 2.833648681640625000e+01 -4.530936479568481445e-01 3.682446956634521484e+00 -4.530936479568481445e-01 2.006470870971679688e+01
2.547067260742187500e+01 -1.359152317047119141e+00 3.542664289474487305e+00 -1.359152317047119141e+00 2.773313331604003906e+01 -1.059544831514358521e-02 3.542664289474487305e+00 -1.059544831514358521e-02 1.966010475158691406e+01
1.394536304473876953e+01 -3.208489894866943359e+00 2.961162626743316650e-01 -3.208489894866943359e+00 1.837222099304199219e+01 6.289677143096923828e+00 2.961162626743316650e-01 6.289677143096923828e+00 1.249518489837646484e+01
9.431032180786132812e+00 -3.979187965393066406e+00 -1.261659860610961914e+00 -3.979187965393066406e+00 1.615717506408691406e+01 8.205026626586914062e+00 -1.261659860610961914e+00 8.205026626586914062e+00 9.928837776184082031e+00
-2.102365970611572266e+00 -8.075954437255859375e+00 -6.776268005371093750e+00 -8.075954437255859375e+00 1.606750869750976562e+01 1.228777122497558594e+01 -6.776268005371093750e+00 1.228777122497558594e+01 3.540639638900756836e+00
-3.356161832809448242e+00 -8.746274948120117188e+00 -7.502532958984375000e+00 -8.746274948120117188e+00 1.667644309997558594e+01 1.256307792663574219e+01 -7.502532958984375000e+00 1.256307792663574219e+01 2.863695144653320312e+00
-5.403009414672851562e+00 -9.966577529907226562e+00 -8.747151374816894531e+00 -9.966577529907226562e+00 1.755022811889648438e+01 1.289622688293457031e+01 -8.747151374816894531e+00 1.289622688293457031e+01 1.748387098312377930e+00
-8.966920852661132812e+00 -1.002117156982421875e+01 -1.043014144897460938e+01 -1.002117156982421875e+01 1.498821926116943359e+01 1.265985298156738281e+01 -1.043014144897460938e+01 1.265985298156738281e+01 1.482774764299392700e-01
-9.150691032409667969e+00 -9.783876419067382812e+00 -1.048080158233642578e+01 -9.783876419067382812e+00 1.432838058471679688e+01 1.263838386535644531e+01 -1.048080158233642578e+01 1.263838386535644531e+01 1.006567105650901794e-01
-9.571034431457519531e+00 -8.930600166320800781e+00 -1.060741901397705078e+01 -8.930600166320800781e+00 1.209234237670898438e+01 1.261848545074462891e+01 -1.060741901397705078e+01 1.261848545074462891e+01 8.682650513947010040e-03
-9.850156784057617188e+00 -7.546539783477783203e+00 -1.065875434875488281e+01 -7.546539783477783203e+00 8.845326423645019531e+00 1.269941425323486328e+01 -1.065875434875488281e+01 1.269941425323486328e+01 -1.547902673482894897e-01
-9.834046363830566406e+00 -5.118968486785888672e+00 -1.032831096649169922e+01 -5.118968486785888672e+00 3.976293087005615234e+00 1.317829418182373047e+01 -1.032831096649169922e+01 1.317829418182373047e+01 -3.933662176132202148e-01
-9.793933868408203125e+00 -4.623648166656494141e+00 -1.022144126892089844e+01 -4.623648166656494141e+00 3.227929115295410156e+00 1.323736381530761719e+01 -1.022144126892089844e+01 1.323736381530761719e+01 -4.862996637821197510e-01
-9.759187698364257812e+00 -4.105574607849121094e+00 -1.007157421112060547e+01 -4.105574607849121094e+00 2.498324155807495117e+00 1.330575275421142578e+01 -1.007157421112060547e+01 1.330575275421142578e+01 -5.620558261871337891e-01
-9.521288871765136719e+00 -2.377719163894653320e+00 -9.430082321166992188e+00 -2.377719163894653320e+00 4.698532521724700928e-01 1.340069770812988281e+01 -9.430082321166992188e+00 1.340069770812988281e+01 -8.645722270011901855e-01
-8.849009513854980469e+00 1.196141600608825684e+00 -8.583766937255859375e+00 1.196141600608825684e+00 -2.615831613540649414e+00 1.260404396057128906e+01 -8.583766937255859375e+00 1.260404396057128906e+01 -2.376540422439575195e+00
-8.843076705932617188e+00 1.548629879951477051e+00 -8.481638908386230469e+00 1.548629879951477051e+00 -2.923404932022094727e+00 1.248007488250732422e+01 -8.481638908386230469e+00 1.248007488250732422e+01 -2.576656818389892578e+00
-8.847764015197753906e+00 1.880229473114013672e+00 -8.369792938232421875e+00 1.880229473114013672e+00 -3.190756797790527344e+00 1.236106204986572266e+01 -8.369792938232421875e+00 1.236106204986572266e+01 -2.768318653106689453e+00
-8.808290481567382812e+00 2.578676462173461914e+00 -8.147018432617187500e+00 2.578676462173461914e+00 -3.531385898590087891e+00 1.199403953552246094e+01 -8.147018432617187500e+00 1.199403953552246094e+01 -3.256617307662963867e+00
-8.771516799926757812e+00 3.357141256332397461e+00 -7.942311763763427734e+00 3.357141256332397461e+00 -3.547273159027099609e+00 1.144685840606689453e+01 -7.942311763763427734e+00 1.144685840606689453e+01 -3.915910005569458008e+00
-8.990127563476562500e+00 4.346530437469482422e+00 -7.499073028564453125e+00 4.346530437469482422e+00 -2.982315301895141602e+00 1.047928047180175781e+01 -7.499073028564453125e+00 1.047928047180175781e+01 -5.009160041809082031e+00
-9.023208618164062500e+00 4.723281860351562500e+00 -7.181016921997070312e+00 4.723281860351562500e+00 -2.832172632217407227e+00 9.874657630920410156e+00 -7.181016921997070312e+00 9.874657630920410156e+00 -5.369637012481689453e+00
-9.555447578430175781e+00 4.910624027252197266e+00 -6.401314258575439453e+00 4.910624027252197266e+00 -5.617195367813110352e-01 8.197644233703613281e+00 -6.401314258575439453e+00 8.197644233703613281e+00 -6.153559207916259766e+00
-9.784114837646484375e+00 3.816925048828125000e+00 -5.165023803710937500e+00 3.816925048828125000e+00 2.134515285491943359e+00 6.087893486022949219e+00 -5.165023803710937500e+00 6.087893486022949219e+00 -5.692219257354736328e+00
-9.783867835998535156e+00 3.037167787551879883e+00 -4.710278034210205078e+00 3.037167787551879883e+00 3.206998348236083984e+00 5.541966915130615234e+00 -4.710278034210205078e+00 5.541966915130615234e+00 -5.118978023529052734e+00
-9.510995864868164062e+00 7.213994860649108887e-01 -3.483608484268188477e+00 7.213994860649108887e-01 6.320446491241455078e+00 3.930610179901123047e+00 -3.483608484268188477e+00 3.930610179901123047e+00 -3.051204204559326172e+00
-6.705151081085205078e+00 -6.295228004455566406e+00 -9.204803109169006348e-01 -6.295228004455566406e+00 1.402038383483886719e+01 9.985371232032775879e-01 -9.204803109169006348e-01 9.985371232032775879e-01 4.627583026885986328e+00
-6.287897109985351562e+00 -6.962915897369384766e+00 -6.969925165176391602e-01 -6.962915897369384766e+00 1.474157142639160156e+01 6.787081956863403320e-01 -6.969925165176391602e-01 6.787081956863403320e-01 5.407896041870117188e+00
-5.504097938537597656e+00 -8.202787399291992188e+00 -3.179744482040405273e-01 -8.202787399291992188e+00 1.623369407653808594e+01 1.618546098470687866e-01 -3.179744482040405273e-01 1.618546098470687866e-01 6.998977661132812500e+00
-4.976361274719238281e+00 -8.531442642211914062e+00 -3.645972609519958496e-01 -8.531442642211914062e+00 1.718542098999023438e+01 3.039899766445159912e-01 -3.645972609519958496e-01 3.039899766445159912e-01 7.834034442901611328e+00
-3.620511770248413086e+00 -9.889110565185546875e+00 1.902054697275161743e-01 -9.889110565185546875e+00 1.947883415222167969e+01 -3.452494740486145020e-01 1.902054697275161743e-01 -3.452494740486145020e-01 9.931968688964843750e+00
-3.195363521575927734e+00 -1.016874504089355469e+01 2.432730197906494141e-01 -1.016874504089355469e+01 2.039670181274414062e+01 -4.195092916488647461e-01 2.432730197906494141e-01 -4.195092916488647461e-01 1.057460594177246094e+01
-1.192298054695129395e+00 -1.155627536773681641e+01 1.200161457061767578e+00 -1.155627536773681641e+01 2.336063194274902344e+01 -1.460511326789855957e+00 1.200161457061767578e+00 -1.460511326789855957e+00 1.324950885772705078e+01
3.082981109619140625e-01 -1.086604022979736328e+01 2.605895519256591797e+00 -1.086604022979736328e+01 2.453640747070312500e+01 -2.784520149230957031e+00 2.605895519256591797e+00 -2.784520149230957031e+00 1.517812156677246094e+01
2.954169809818267822e-01 -1.051788616180419922e+01 2.809081077575683594e+00 -1.051788616180419922e+01 2.433095741271972656e+01 -2.963875770568847656e+00 2.809081077575683594e+00 -2.963875770568847656e+00 1.529049205780029297e+01
2.483056038618087769e-01 -1.009183311462402344e+01 2.963088274002075195e+00 -1.009183311462402344e+01 2.407407760620117188e+01 -3.143621206283569336e+00 2.963088274002075195e+00 -3.143621206283569336e+00 1.536332035064697266e+01
3.417770862579345703e-01 -8.274108886718750000e+00 3.294864654541015625e+00 -8.274108886718750000e+00 2.280359458923339844e+01 -3.352779150009155273e+00 3.294864654541015625e+00 -3.352779150009155273e+00 1.511881065368652344e+01
-1.388447403907775879e+00 -1.535033106803894043e+00 3.063926935195922852e+00 -1.535033106803894043e+00 1.689677047729492188e+01 -2.558165788650512695e+00 3.063926935195922852e+00 -2.558165788650512695e+00 1.262287044525146484e+01
-1.689342021942138672e+00 -9.021413922309875488e-01 2.853354454040527344e+00 -9.021413922309875488e-01 1.626889038085937500e+01 -2.300430774688720703e+00 2.853354454040527344e+00 -2.300430774688720703e+00 1.226652812957763672e+01
-2.862399101257324219e+00 2.262512445449829102e+00 1.716048121452331543e+00 2.262512445449829102e+00 1.298847198486328125e+01 -9.537509679794311523e-01 1.716048121452331543e+00 -9.537509679794311523e-01 1.029235839843750000e+01
-3.224353551864624023e+00 3.311829566955566406e+00 1.051314353942871094e+00 3.311829566955566406e+00 1.185803222656250000e+01 -3.137328624725341797e-01 1.051314353942871094e+00 -3.137328624725341797e-01 9.473379135131835938e+00
-5.601074218750000000e+00 8.550107955932617188e+00 -1.665850758552551270e+00 8.550107955932617188e+00 7.475551605224609375e+00 2.786793231964111328e+00 -1.665850758552551270e+00 2.786793231964111328e+00 5.832745075225830078e+00
-5.583163261413574219e+00 1.014948940277099609e+01 -2.693648338317871094e+00 1.014948940277099609e+01 6.139050006866455078e+00 4.265481472015380859e+00 -2.693648338317871094e+00 4.265481472015380859e+00 4.086208343505859375e+00
-5.378028869628906250e+00 1.066534614562988281e+01 -2.843437194824218750e+00 1.066534614562988281e+01 5.786610603332519531e+00 4.638411521911621094e+00 -2.843437194824218750e+00 4.638411521911621094e+00 3.524268150329589844e+00
-5.071862697601318359e+00 1.117423629760742188e+01 -3.101641654968261719e+00 1.117423629760742188e+01 5.190020561218261719e+00 5.338346481323242188e+00 -3.101641654968261719e+00 5.338346481323242188e+00 2.915487289428710938e+00
-4.791672706604003906e+00 1.140874862670898438e+01 -3.198808431625366211e+00 1.140874862670898438e+01 5.011234283447265625e+00 5.516631603240966797e+00 -3.198808431625366211e+00 5.516631603240966797e+00 2.590168476104736328e+00
-4.547254085540771484e+00 1.154226016998291016e+01 -3.325912952423095703e+00 1.154226016998291016e+01 4.861253261566162109e+00 5.681895256042480469e+00 -3.325912952423095703e+00 5.681895256042480469e+00 2.295583009719848633e+00
-4.177542686462402344e+00 9.908545494079589844e+00 -5.143092632293701172e+00 9.908545494079589844e+00 2.236013889312744141e+00 7.272333145141601562e+00 -5.143092632293701172e+00 7.272333145141601562e+00 -1.407781243324279785e-01
-4.241641044616699219e+00 9.600484848022460938e+00 -5.308366298675537109e+00 9.600484848022460938e+00 2.095129251480102539e+00 7.311278820037841797e+00 -5.308366298675537109e+00 7.311278820037841797e+00 -2.120762020349502563e-01