-7.184845209121704102e-02 8.240540325641632080e-02 -1.575217396020889282e-01 6.977717578411102295e-02 1.058975756168365479e-01 1.594243496656417847e-01 -3.516240790486335754e-02 -4.231830313801765442e-02 7.751465588808059692e-02 -7.158260047435760498e-02 -1.982474885880947113e-02 -6.118763238191604614e-02 -1.276768743991851807e-01 -1.542096398770809174e-02 -1.067902669310569763e-01 8.183513581752777100e-02 1.919328607618808746e-02 2.747121080756187439e-02 1.394088268280029297e-01 1.302988976240158081e-01 1.971563249826431274e-01 -2.003455162048339844e-02 6.077882647514343262e-02 -4.256564378738403320e-02 -1.533668339252471924e-01 -2.593472041189670563e-02 8.479910343885421753e-02 1.630922853946685791e-01 -6.555285304784774780e-02 -3.412831202149391174e-02 1.676050871610641479e-01 -1.172237992286682129e-01 -1.518617123365402222e-01 -8.445405960083007812e-02 -9.898594021797180176e-02 4.645829647779464722e-02 -4.898568987846374512e-02 -3.029274009168148041e-02 9.756771475076675415e-02 8.779649436473846436e-02 -7.414856553077697754e-02 -7.076551020145416260e-02 -5.814601853489875793e-02 2.964790724217891693e-02 -8.431933820247650146e-02 -3.916201740503311157e-02 6.050320342183113098e-02 1.914803497493267059e-02 1.259794384241104126e-01 1.067768931388854980e-01 -1.081359833478927612e-01 -2.037085220217704773e-02 5.405744910240173340e-02 1.580626964569091797e-01 -9.782020002603530884e-03 -8.809731155633926392e-02 1.476682424545288086e-01 -5.408316105604171753e-02 -2.757816947996616364e-02 -1.916238218545913696e-01 4.864270612597465515e-02 -6.420096755027770996e-02 -1.033367589116096497e-01 -1.080141067504882812e-01 -7.994125783443450928e-02 2.396000921726226807e-01 2.781985327601432800e-02 8.030069991946220398e-03 1.448359042406082153e-01 -4.673237446695566177e-03 -1.051632687449455261e-02 -5.267830938100814819e-02 -2.362607419490814209e-01 -2.364900894463062286e-03 -6.565929204225540161e-02 1.614730060100555420e-01 1.710092276334762573e-01 -2.133758738636970520e-02 6.910149008035659790e-02 1.516282465308904648e-02 5.713814496994018555e-02 2.780905459076166153e-03 6.142880301922559738e-03 -3.149395808577537537e-02 -3.310244157910346985e-02 -3.767335042357444763e-02 4.561600089073181152e-02 6.081173568964004517e-02 -1.570856720209121704e-01 -1.447855085134506226e-01 1.771773099899291992e-01 5.745387449860572815e-02 9.488914161920547485e-03 -2.065830081701278687e-01 4.981049895286560059e-02 -8.376706391572952271e-02
-5.183755755424499512e-01 4.230822622776031494e-01 -1.092191815376281738e+00 3.403852880001068115e-01 8.537451624870300293e-01 1.161348938941955566e+00 -8.220670819282531738e-01 9.119035303592681885e-02 -2.466459386050701141e-02 -3.958439826965332031e-01 2.514559626579284668e-01 1.249155178666114807e-01 -7.766557931900024414e-01 6.719352602958679199e-01 -4.072375893592834473e-01 1.701823621988296509e-01 7.580975294113159180e-01 -5.092173218727111816e-01 7.628335356712341309e-01 7.926722168922424316e-01 1.468734025955200195e+00 6.461049318313598633e-01 -1.115015521645545959e-01 6.124239563941955566e-01 -4.087781906127929688e-01 -9.293535947799682617e-01 2.714334428310394287e-01 7.042540311813354492e-01 -1.236882805824279785e+00 2.150820493698120117e-01 6.357700824737548828e-01 -8.517664670944213867e-01 -1.016168475151062012e+00 3.622119128704071045e-01 -4.432139992713928223e-01 -2.393265366554260254e-01 4.583937823772430420e-01 -2.092878101393580437e-03 3.081924915313720703e-01 3.924686461687088013e-02 -5.551834702491760254e-01 5.398597195744514465e-02 -1.439556717872619629e+00 -5.958634987473487854e-02 -2.174510657787322998e-01 2.309971898794174194e-01 3.340675830841064453e-01 -7.059962153434753418e-01 1.373730301856994629e+00 7.060568928718566895e-01 -1.163213476538658142e-01 1.116609647870063782e-01 -8.739591389894485474e-02 8.034291863441467285e-01 2.889513969421386719e-01 -2.487321346998214722e-01 9.003536105155944824e-01 -8.774980306625366211e-01 2.605448067188262939e-01 -1.375691533088684082e+00 2.826712131500244141e-01 -1.695092469453811646e-01 2.373128384351730347e-01 -1.141303062438964844e+00 -4.866641163825988770e-01 1.821050286293029785e+00 6.650004386901855469e-01 -4.137404263019561768e-01 2.626557052135467529e-01 -2.496618479490280151e-01 -6.825101971626281738e-01 6.853492259979248047e-01 -1.766422629356384277e+00 -7.775484323501586914e-01 -5.569076538085937500e-01 8.318748474121093750e-01 1.935257196426391602e+00 -6.508393287658691406e-01 -5.262606143951416016e-01 6.101711392402648926e-01 3.732804954051971436e-01 1.137019038200378418e+00 6.148963570594787598e-01 -9.692648053169250488e-02 3.872688412666320801e-01 3.132796883583068848e-01 2.060317695140838623e-01 -8.656596392393112183e-02 -1.431935429573059082e+00 -1.744335770606994629e+00 1.658329248428344727e+00 -1.351901590824127197e-01 7.321134805679321289e-01 -2.077871084213256836e+00 6.432900670915842056e-03 -1.484418869018554688e+00
-5.844658017158508301e-01 4.719275534152984619e-01 -1.236926436424255371e+00 3.523105680942535400e-01 9.859513044357299805e-01 1.324746131896972656e+00 -9.342603087425231934e-01 1.162411272525787354e-01 -4.776698723435401917e-02 -4.306839704513549805e-01 2.722952663898468018e-01 1.405149102210998535e-01 -8.897601366043090820e-01 7.726294398307800293e-01 -4.761986732482910156e-01 1.973326951265335083e-01 8.291864991188049316e-01 -5.579633712768554688e-01 8.367908000946044922e-01 8.874765038490295410e-01 1.656926512718200684e+00 7.434540987014770508e-01 -1.421902477741241455e-01 7.175800204277038574e-01 -4.504490792751312256e-01 -1.044656276702880859e+00 3.107569217681884766e-01 8.184372186660766602e-01 -1.380033612251281738e+00 2.225027680397033691e-01 7.177163362503051758e-01 -9.622863531112670898e-01 -1.134024262428283691e+00 4.091149866580963135e-01 -4.790068566799163818e-01 -2.712329030036926270e-01 5.464859604835510254e-01 -1.114470511674880981e-02 3.495815992355346680e-01 1.995484717190265656e-02 -6.424806714057922363e-01 6.555953621864318848e-02 -1.599152803421020508e+00 -7.160831242799758911e-02 -2.484909743070602417e-01 2.345170229673385620e-01 3.824187219142913818e-01 -8.112216591835021973e-01 1.584867715835571289e+00 8.231521248817443848e-01 -1.064405962824821472e-01 1.297373622655868530e-01 -9.633821249008178711e-02 8.974755406379699707e-01 3.364633321762084961e-01 -2.674415409564971924e-01 1.044513821601867676e+00 -9.757378697395324707e-01 2.713069319725036621e-01 -1.575062513351440430e+00 3.139764666557312012e-01 -1.803140491247177124e-01 2.853312790393829346e-01 -1.303260922431945801e+00 -5.637771487236022949e-01 2.103614091873168945e+00 7.603560090065002441e-01 -4.553280174732208252e-01 2.795853912830352783e-01 -2.712560296058654785e-01 -7.725774645805358887e-01 7.657434940338134766e-01 -2.022088527679443359e+00 -9.292008876800537109e-01 -6.409241557121276855e-01 9.598484039306640625e-01 2.239477872848510742e+00 -7.490081787109375000e-01 -6.124604940414428711e-01 6.838127374649047852e-01 4.202098250389099121e-01 1.266222596168518066e+00 7.067093849182128906e-01 -1.117900311946868896e-01 4.270988404750823975e-01 3.645726740360260010e-01 2.160282135009765625e-01 -9.737385809421539307e-02 -1.654258728027343750e+00 -2.007027864456176758e+00 1.939559102058410645e+00 -1.824002414941787720e-01 9.029493927955627441e-01 -2.423279762268066406e+00 2.796537801623344421e-02 -1.729557037353515625e+00
-7.268257141113281250e-01 5.727019906044006348e-01 -1.548962235450744629e+00 3.388549685478210449e-01 1.298367619514465332e+00 1.688821554183959961e+00 -1.179363012313842773e+00 1.751399636268615723e-01 -1.138145178556442261e-01 -4.949656724929809570e-01 3.049184679985046387e-01 1.686330139636993408e-01 -1.167753458023071289e+00 1.004260063171386719e+00 -6.529404520988464355e-01 2.832085788249969482e-01 9.751186966896057129e-01 -6.436489820480346680e-01 9.778996109962463379e-01 1.081971168518066406e+00 2.048619747161865234e+00 9.649823904037475586e-01 -2.245308607816696167e-01 9.621012210845947266e-01 -5.412342548370361328e-01 -1.285890579223632812e+00 4.026126861572265625e-01 1.107091903686523438e+00 -1.689432382583618164e+00 2.224657535552978516e-01 9.061540365219116211e-01 -1.178248286247253418e+00 -1.366048812866210938e+00 4.942930936813354492e-01 -5.475246906280517578e-01 -3.375272452831268311e-01 7.603518962860107422e-01 -4.103892296552658081e-02 4.489187598228454590e-01 -4.044962674379348755e-02 -8.579412102699279785e-01 8.476979285478591919e-02 -1.911604523658752441e+00 -1.154708266258239746e-01 -3.121227025985717773e-01 2.140304744243621826e-01 5.070205330848693848e-01 -1.045854449272155762e+00 2.055843353271484375e+00 1.094583511352539062e+00 -7.716395705938339233e-02 1.817466765642166138e-01 -1.133933737874031067e-01 1.097143769264221191e+00 4.452076256275177002e-01 -3.040494322776794434e-01 1.382907032966613770e+00 -1.178187012672424316e+00 2.726727128028869629e-01 -2.036882162094116211e+00 3.843079507350921631e-01 -1.861833631992340088e-01 3.922593593597412109e-01 -1.655873894691467285e+00 -7.547345161437988281e-01 2.736071586608886719e+00 9.781073927879333496e-01 -5.159263610839843750e-01 3.106221854686737061e-01 -3.050233721733093262e-01 -9.652693271636962891e-01 9.315333962440490723e-01 -2.598739624023437500e+00 -1.289075136184692383e+00 -8.354121446609497070e-01 1.248911976814270020e+00 2.942423105239868164e+00 -9.603533744812011719e-01 -8.052767515182495117e-01 8.317807316780090332e-01 5.287864804267883301e-01 1.527488350868225098e+00 9.070575237274169922e-01 -1.504882276058197021e-01 4.990984797477722168e-01 4.674482047557830811e-01 2.364139854907989502e-01 -1.260118335485458374e-01 -2.153811693191528320e+00 -2.591603279113769531e+00 2.572113275527954102e+00 -3.180768489837646484e-01 1.329570531845092773e+00 -3.208331823348999023e+00 1.051848679780960083e-01 -2.299441099166870117e+00
-8.431887030601501465e-01 6.386641263961791992e-01 -1.793159008026123047e+00 2.656577229499816895e-01 1.592206716537475586e+00 1.989382505416870117e+00 -1.402012944221496582e+00 2.632835507392883301e-01 -2.068462967872619629e-01 -5.409267544746398926e-01 3.070318996906280518e-01 1.774107664823532104e-01 -1.457927227020263672e+00 1.219414710998535156e+00 -8.370391726493835449e-01 3.993792533874511719e-01 1.094222545623779297e+00 -7.002584934234619141e-01 1.077091813087463379e+00 1.205701470375061035e+00 2.328786611557006836e+00 1.185137748718261719e+00 -3.289186954498291016e-01 1.211625814437866211e+00 -5.992650389671325684e-01 -1.476193904876708984e+00 4.804193973541259766e-01 1.400097370147705078e+00 -1.934656500816345215e+00 2.271178960800170898e-01 1.076644897460937500e+00 -1.290479421615600586e+00 -1.504691481590270996e+00 5.482785105705261230e-01 -5.947944521903991699e-01 -3.845758736133575439e-01 9.818801879882812500e-01 -6.684046238660812378e-02 5.373508334159851074e-01 -1.293655782938003540e-01 -1.095092535018920898e+00 9.854628145694732666e-02 -2.134675025939941406e+00 -2.146531939506530762e-01 -3.360051512718200684e-01 1.541448533535003662e-01 6.551022529602050781e-01 -1.280049562454223633e+00 2.420763254165649414e+00 1.285662293434143066e+00 -4.710981249809265137e-02 2.498572617769241333e-01 -1.175174191594123840e-01 1.263430953025817871e+00 5.536870956420898438e-01 -3.371863365173339844e-01 1.670904040336608887e+00 -1.353186130523681641e+00 2.446317374706268311e-01 -2.446826457977294922e+00 4.416970610618591309e-01 -1.610698550939559937e-01 4.928532540798187256e-01 -1.916397571563720703e+00 -9.170190095901489258e-01 3.212221384048461914e+00 1.207401990890502930e+00 -5.140705108642578125e-01 3.153118789196014404e-01 -3.199882209300994873e-01 -1.136649370193481445e+00 1.079960107803344727e+00 -3.069165706634521484e+00 -1.593623876571655273e+00 -1.009117484092712402e+00 1.473387241363525391e+00 3.523417949676513672e+00 -1.121969819068908691e+00 -9.985923767089843750e-01 9.482054114341735840e-01 6.436160802841186523e-01 1.746102690696716309e+00 1.096680998802185059e+00 -1.947662234306335449e-01 5.630958080291748047e-01 5.540413856506347656e-01 2.554818093776702881e-01 -1.763380914926528931e-01 -2.562375545501708984e+00 -3.050766468048095703e+00 2.981269359588623047e+00 -4.944108426570892334e-01 1.706804394721984863e+00 -3.784527778625488281e+00 2.073836624622344971e-01 -2.778029918670654297e+00
-7.796464562416076660e-01 3.882124423980712891e-01 -1.163135766983032227e+00 1.244635134935379028e-01 1.464914917945861816e+00 1.268181324005126953e+00 -1.564477801322937012e+00 7.319839000701904297e-01 -5.832419395446777344e-01 -5.343950986862182617e-01 1.476543545722961426e-01 8.007290214300155640e-02 -1.706848621368408203e+00 1.165003418922424316e+00 -7.524781227111816406e-01 6.442439556121826172e-01 1.198584675788879395e+00 -8.702300190925598145e-01 1.258595228195190430e+00 7.848092317581176758e-01 1.732426404953002930e+00 1.576738953590393066e+00 -6.602125763893127441e-01 1.609531283378601074e+00 -1.813512295484542847e-01 -1.473627328872680664e+00 2.824166715145111084e-01 1.180971503257751465e+00 -1.613512873649597168e+00 7.693589925765991211e-01 8.711900711059570312e-01 -4.952335953712463379e-01 -9.251616597175598145e-01 4.961612522602081299e-01 -6.030255556106567383e-01 -3.285875320434570312e-01 1.142622470855712891e+00 3.873768448829650879e-01 2.041605263948440552e-01 -4.009034037590026855e-01 -1.547172307968139648e+00 2.608759701251983643e-01 -2.062441825866699219e+00 -1.005840778350830078e+00 9.312793612480163574e-02 -1.015323549509048462e-01 1.095604181289672852e+00 -1.659056901931762695e+00 1.373963713645935059e+00 1.315412521362304688e-01 -1.677542179822921753e-02 5.455084443092346191e-01 -1.404218375682830811e-01 1.075794935226440430e+00 7.013790011405944824e-01 -5.831910371780395508e-01 8.158872127532958984e-01 -1.576021552085876465e+00 2.726763188838958740e-01 -1.885049700736999512e+00 4.410990178585052490e-01 2.806364595890045166e-01 6.427830457687377930e-01 -1.235288619995117188e+00 -4.368906319141387939e-01 1.269673585891723633e+00 1.839443922042846680e+00 4.410419240593910217e-02 -1.453187665902078152e-03 -1.811511963605880737e-01 -1.247269034385681152e+00 1.448009371757507324e+00 -2.130455732345581055e+00 -8.816380500793457031e-01 -9.747310280799865723e-01 5.962110757827758789e-01 2.318319082260131836e+00 -6.567929983139038086e-01 -1.396520018577575684e+00 9.607884287834167480e-01 9.044390916824340820e-01 1.981920123100280762e+00 1.317448258399963379e+00 -2.538712620735168457e-01 8.041321039199829102e-01 5.018495321273803711e-01 4.449006319046020508e-01 -4.160538911819458008e-01 -1.750871062278747559e+00 -1.796683907508850098e+00 4.290873408317565918e-01 -8.468093276023864746e-01 7.007984519004821777e-01 -1.740635395050048828e+00 9.416460245847702026e-02 -1.735185742378234863e+00
-6.826418042182922363e-01 2.203533351421356201e-01 -5.639047026634216309e-01 2.070103287696838379e-01 1.119927406311035156e+00 5.666953325271606445e-01 -1.443935751914978027e+00 9.246443510055541992e-01 -6.891168951988220215e-01 -5.124728679656982422e-01 7.577966898679733276e-02 9.509997442364692688e-03 -1.534927606582641602e+00 9.234729409217834473e-01 -4.848540425300598145e-01 6.098559498786926270e-01 1.164310336112976074e+00 -9.875099062919616699e-01 1.333772778511047363e+00 5.607951879501342773e-01 1.252901196479797363e+00 1.591013193130493164e+00 -7.417072653770446777e-01 1.571323156356811523e+00 1.040782630443572998e-01 -1.364642977714538574e+00 7.966255396604537964e-02 7.426843047142028809e-01 -1.257478356361389160e+00 1.107100605964660645e+00 5.765781402587890625e-01 -1.231311708688735962e-01 -5.627327561378479004e-01 4.433723688125610352e-01 -5.976262688636779785e-01 -2.511417865753173828e-01 1.000056385993957520e+00 7.263238430023193359e-01 -1.056404635310173035e-01 -4.258204698562622070e-01 -1.560887575149536133e+00 3.859488368034362793e-01 -1.915474534034729004e+00 -1.320546507835388184e+00 3.289536535739898682e-01 -1.397194117307662964e-01 1.213833808898925781e+00 -1.634130597114562988e+00 6.796881556510925293e-01 -4.959303736686706543e-01 7.783192396163940430e-02 6.460272669792175293e-01 -1.435657888650894165e-01 7.970986366271972656e-01 6.673468351364135742e-01 -7.377225756645202637e-01 1.329275816679000854e-01 -1.547247290611267090e+00 3.600053787231445312e-01 -1.268858075141906738e+00 3.936024904251098633e-01 5.118424296379089355e-01 6.372967958450317383e-01 -7.767946124076843262e-01 -9.298343956470489502e-02 3.189505264163017273e-02 1.995378255844116211e+00 3.350338041782379150e-01 -1.444461345672607422e-01 -5.893740430474281311e-02 -1.140969276428222656e+00 1.509363651275634766e+00 -1.390717506408691406e+00 -4.011908471584320068e-01 -8.855795264244079590e-01 5.760814063251018524e-03 1.420290350914001465e+00 -3.095387220382690430e-01 -1.437682867050170898e+00 8.784339427947998047e-01 9.365943670272827148e-01 1.913352966308593750e+00 1.250158429145812988e+00 -2.163197845220565796e-01 9.085888266563415527e-01 3.900394737720489502e-01 5.555341839790344238e-01 -4.898954629898071289e-01 -1.159615397453308105e+00 -9.163129329681396484e-01 -6.713958382606506348e-01 -8.302586674690246582e-01 1.109256297349929810e-01 -7.904697656631469727e-01 -1.070298925042152405e-01 -1.071489334106445312e+00
-5.966034531593322754e-01 6.247267127037048340e-02 7.748483121395111084e-02 3.147714436054229736e-01 7.482861876487731934e-01 -1.549783945083618164e-01 -1.268437385559082031e+00 1.103116989135742188e+00 -7.646558880805969238e-01 -4.977820813655853271e-01 6.155221257358789444e-03 -7.843099534511566162e-02 -1.304973840713500977e+00 6.658232212066650391e-01 -1.890290677547454834e-01 5.215364694595336914e-01 1.117215394973754883e+00 -1.124068379402160645e+00 1.402025699615478516e+00 3.789322972297668457e-01 7.704604268074035645e-01 1.548114776611328125e+00 -8.073074221611022949e-01 1.450725078582763672e+00 3.889868557453155518e-01 -1.258782863616943359e+00 -1.428659260272979736e-01 2.823812067508697510e-01 -9.113553762435913086e-01 1.432086110115051270e+00 2.493188679218292236e-01 1.781162768602371216e-01 -2.108237892389297485e-01 3.879126608371734619e-01 -6.042416691780090332e-01 -1.590530872344970703e-01 8.232122659683227539e-01 1.073618173599243164e+00 -4.254887998104095459e-01 -4.139599800109863281e-01 -1.524526953697204590e+00 5.237507224082946777e-01 -1.756437420845031738e+00 -1.596824407577514648e+00 5.508260130882263184e-01 -1.365631222724914551e-01 1.328842878341674805e+00 -1.528414487838745117e+00 8.251442015171051025e-02 -1.000272393226623535e+00 2.272336035966873169e-01 7.332596778869628906e-01 -1.298119276762008667e-01 4.732100367546081543e-01 5.874045491218566895e-01 -9.035428166389465332e-01 -5.000811219215393066e-01 -1.461380243301391602e+00 4.529646635055541992e-01 -6.874436140060424805e-01 3.355058431625366211e-01 7.478958964347839355e-01 6.086866259574890137e-01 -3.816710412502288818e-01 1.897304654121398926e-01 -1.029106259346008301e+00 2.096540927886962891e+00 6.274170875549316406e-01 -2.512821555137634277e-01 1.106993705034255981e-01 -9.633466601371765137e-01 1.499497771263122559e+00 -7.265598773956298828e-01 -2.609464153647422791e-02 -8.205305933952331543e-01 -5.216372609138488770e-01 6.652143597602844238e-01 9.239003062248229980e-03 -1.418207287788391113e+00 7.678394317626953125e-01 9.383509159088134766e-01 1.760746598243713379e+00 1.105906128883361816e+00 -1.345237344503402710e-01 1.008166193962097168e+00 2.512070834636688232e-01 6.754416823387145996e-01 -5.595574378967285156e-01 -6.597374081611633301e-01 -1.550200432538986206e-01 -1.450200557708740234e+00 -7.672835588455200195e-01 -3.346913158893585205e-01 -1.391177773475646973e-01 -3.176423311233520508e-01 -5.464864969253540039e-01
-5.744816660881042480e-01 2.325665764510631561e-02 2.544209659099578857e-01 3.444707691669464111e-01 6.456575393676757812e-01 -3.478589653968811035e-01 -1.212740659713745117e+00 1.147761583328247070e+00 -7.798038125038146973e-01 -4.939161539077758789e-01 -1.119406986981630325e-02 -1.077893972396850586e-01 -1.236285209655761719e+00 5.985934734344482422e-01 -1.084933653473854065e-01 4.887744784355163574e-01 1.104946017265319824e+00 -1.162955880165100098e+00 1.418126463890075684e+00 3.359640240669250488e-01 6.379267573356628418e-01 1.524237513542175293e+00 -8.251745700836181641e-01 1.399978160858154297e+00 4.645397663116455078e-01 -1.234379053115844727e+00 -2.040741294622421265e-01 1.594845205545425415e-01 -8.243024349212646484e-01 1.515254616737365723e+00 1.563760489225387573e-01 2.498423457145690918e-01 -1.147879362106323242e-01 3.709860444068908691e-01 -6.082922220230102539e-01 -1.299996078014373779e-01 7.730305194854736328e-01 1.167046427726745605e+00 -5.093520283699035645e-01 -4.061412513256072998e-01 -1.507627606391906738e+00 5.594669580459594727e-01 -1.709655761718750000e+00 -1.662724852561950684e+00 6.086413860321044922e-01 -1.263830959796905518e-01 1.359552145004272461e+00 -1.481500148773193359e+00 -6.220784783363342285e-02 -1.115454196929931641e+00 2.752566635608673096e-01 7.545998096466064453e-01 -1.218096241354942322e-01 3.784587085247039795e-01 5.563266277313232422e-01 -9.491202235221862793e-01 -6.563502550125122070e-01 -1.425979733467102051e+00 4.774631559848785400e-01 -5.429136753082275391e-01 3.173877894878387451e-01 8.132096529006958008e-01 5.983996391296386719e-01 -2.856470048427581787e-01 2.522015869617462158e-01 -1.281401395797729492e+00 2.112032890319824219e+00 7.099705934524536133e-01 -2.727606296539306641e-01 1.699329614639282227e-01 -8.962408900260925293e-01 1.479162454605102539e+00 -5.606481432914733887e-01 5.633595958352088928e-02 -8.066996335983276367e-01 -6.521413326263427734e-01 4.862619936466217041e-01 8.791836351156234741e-02 -1.399529695510864258e+00 7.294369339942932129e-01 9.325062632560729980e-01 1.700547337532043457e+00 1.046990275382995605e+00 -1.004293560981750488e-01 1.034744143486022949e+00 2.084511816501617432e-01 7.075172662734985352e-01 -5.781861543655395508e-01 -5.388456583023071289e-01 2.976257912814617157e-02 -1.612598657608032227e+00 -7.432515025138854980e-01 -4.329959154129028320e-01 -9.045141749083995819e-03 -3.745218217372894287e-01 -4.244917333126068115e-01
-5.201038718223571777e-01 -8.118978887796401978e-02 7.490416169166564941e-01 4.307683110237121582e-01 3.603442609310150146e-01 -8.693023920059204102e-01 -1.028894901275634766e+00 1.261041402816772461e+00 -8.044638037681579590e-01 -4.918325245380401611e-01 -5.822058022022247314e-02 -1.958543211221694946e-01 -1.027265787124633789e+00 4.175728857517242432e-01 1.132678985595703125e-01 3.766944110393524170e-01 1.067979216575622559e+00 -1.274997830390930176e+00 1.450399518013000488e+00 2.328211218118667603e-01 2.681223750114440918e-01 1.415435552597045898e+00 -8.794644474983215332e-01 1.208396434783935547e+00 6.650390028953552246e-01 -1.167829036712646484e+00 -3.766018450260162354e-01 -1.765221804380416870e-01 -5.959853529930114746e-01 1.729982852935791016e+00 -1.077204868197441101e-01 4.218656122684478760e-01 1.447407752275466919e-01 3.215781748294830322e-01 -6.257551312446594238e-01 -5.058954283595085144e-02 6.228086352348327637e-01 1.417326450347900391e+00 -7.365887165069580078e-01 -3.640636205673217773e-01 -1.444486975669860840e+00 6.596314907073974609e-01 -1.562914609909057617e+00 -1.832794547080993652e+00 7.580214142799377441e-01 -7.024614512920379639e-02 1.460526108741760254e+00 -1.290881633758544922e+00 -4.246192574501037598e-01 -1.385036945343017578e+00 4.180778563022613525e-01 8.008009791374206543e-01 -8.726170659065246582e-02 1.056990846991539001e-01 4.470027685165405273e-01 -1.078268289566040039e+00 -1.058922767639160156e+00 -1.289474725723266602e+00 5.348414182662963867e-01 -1.694377660751342773e-01 2.647660672664642334e-01 1.000385522842407227e+00 5.622257590293884277e-01 -5.059160292148590088e-02 3.991817831993103027e-01 -1.901065111160278320e+00 2.112699747085571289e+00 9.450815320014953613e-01 -3.020583689212799072e-01 3.787440955638885498e-01 -6.385402083396911621e-01 1.366893172264099121e+00 -1.325475722551345825e-01 2.437380254268646240e-01 -7.771447896957397461e-01 -9.780657291412353516e-01 4.261243715882301331e-02 2.918845117092132568e-01 -1.306695461273193359e+00 5.997345447540283203e-01 8.997601866722106934e-01 1.463856220245361328e+00 8.108339309692382812e-01 3.551773726940155029e-02 1.107305884361267090e+00 7.559558004140853882e-02 8.032975196838378906e-01 -6.297094821929931641e-01 -2.377319335937500000e-01 4.875778853893280029e-01 -1.967543482780456543e+00 -6.532031893730163574e-01 -6.747495532035827637e-01 2.709269225597381592e-01 -5.256733894348144531e-01 -1.194894611835479736e-01
-5.025725364685058594e-01 -1.095979064702987671e-01 8.973875641822814941e-01 4.549587965011596680e-01 2.749342620372772217e-01 -1.019691944122314453e+00 -9.632926583290100098e-01 1.293487668037414551e+00 -8.031150102615356445e-01 -4.966585040092468262e-01 -7.187930494546890259e-02 -2.327085137367248535e-01 -9.613422155380249023e-01 3.696490824222564697e-01 1.765237301588058472e-01 3.366608023643493652e-01 1.057144165039062500e+00 -1.307830333709716797e+00 1.459096074104309082e+00 2.049148827791213989e-01 1.588422507047653198e-01 1.364446997642517090e+00 -8.991755247116088867e-01 1.125382781028747559e+00 7.217081785202026367e-01 -1.153070449829101562e+00 -4.269106388092041016e-01 -2.743675708770751953e-01 -5.340639352798461914e-01 1.787352442741394043e+00 -1.916089057922363281e-01 4.667843282222747803e-01 2.223459333181381226e-01 3.070026040077209473e-01 -6.329284906387329102e-01 -2.103779651224613190e-02 5.778102278709411621e-01 1.488786578178405762e+00 -7.988243103027343750e-01 -3.474691808223724365e-01 -1.420356154441833496e+00 6.862259507179260254e-01 -1.515654683113098145e+00 -1.875979304313659668e+00 7.977583408355712891e-01 -3.826264664530754089e-02 1.493222236633300781e+00 -1.208845853805541992e+00 -5.230817198753356934e-01 -1.451794624328613281e+00 4.623728394508361816e-01 8.096060156822204590e-01 -7.066626101732254028e-02 2.031634375452995300e-02 4.062878191471099854e-01 -1.116234302520751953e+00 -1.166732311248779297e+00 -1.234123945236206055e+00 5.491629838943481445e-01 -6.820468604564666748e-02 2.475304007530212402e-01 1.056612372398376465e+00 5.506321191787719727e-01 1.174120046198368073e-02 4.336016774177551270e-01 -2.061582088470458984e+00 2.095614910125732422e+00 1.022786974906921387e+00 -3.006360232830047607e-01 4.615593254566192627e-01 -5.291387438774108887e-01 1.308454036712646484e+00 -1.248784922063350677e-02 2.889560163021087646e-01 -7.698485255241394043e-01 -1.064395666122436523e+00 -7.886036485433578491e-02 3.479001224040985107e-01 -1.262296557426452637e+00 5.473442077636718750e-01 8.825919032096862793e-01 1.365291357040405273e+00 7.080453634262084961e-01 9.452301263809204102e-02 1.128002166748046875e+00 3.190739452838897705e-02 8.315673470497131348e-01 -6.434983015060424805e-01 -1.550545096397399902e-01 6.093777418136596680e-01 -2.045430421829223633e+00 -6.191931962966918945e-01 -7.382079958915710449e-01 3.292313218116760254e-01 -5.692957639694213867e-01 -3.538712486624717712e-02
-4.941563010215759277e-01 -1.233368590474128723e-01 9.677756428718566895e-01 4.663040637969970703e-01 2.337004393339157104e-01 -1.089482426643371582e+00 -9.301012754440307617e-01 1.308094620704650879e+00 -8.008328676223754883e-01 -4.993365705013275146e-01 -7.738352566957473755e-02 -2.517017722129821777e-01 -9.283760786056518555e-01 3.474517166614532471e-01 2.060132622718811035e-01 3.162919878959655762e-01 1.051963329315185547e+00 -1.322524666786193848e+00 1.461805462837219238e+00 1.923221349716186523e-01 1.066118329763412476e-01 1.336119651794433594e+00 -9.100559353828430176e-01 1.079598546028137207e+00 7.480959296226501465e-01 -1.145634293556213379e+00 -4.507406353950500488e-01 -3.207610845565795898e-01 -5.051534175872802734e-01 1.812841296195983887e+00 -2.317782789468765259e-01 4.871654808521270752e-01 2.590294182300567627e-01 2.989946305751800537e-01 -6.364061832427978516e-01 -5.901196505874395370e-03 5.559378266334533691e-01 1.521782636642456055e+00 -8.275610208511352539e-01 -3.389845490455627441e-01 -1.407396316528320312e+00 6.979234218597412109e-01 -1.491790652275085449e+00 -1.895296573638916016e+00 8.159381151199340820e-01 -1.922208257019519806e-02 1.509286046028137207e+00 -1.163448929786682129e+00 -5.684441924095153809e-01 -1.481517076492309570e+00 4.834183454513549805e-01 8.125349879264831543e-01 -6.208443269133567810e-02 -2.148568257689476013e-02 3.848957121372222900e-01 -1.134483933448791504e+00 -1.216704726219177246e+00 -1.204358339309692383e+00 5.549906492233276367e-01 -2.116069570183753967e-02 2.389568090438842773e-01 1.084425568580627441e+00 5.448024272918701172e-01 4.008761420845985413e-02 4.489753246307373047e-01 -2.134334087371826172e+00 2.083089351654052734e+00 1.060586333274841309e+00 -2.975229322910308838e-01 5.054897069931030273e-01 -4.686915874481201172e-01 1.275740861892700195e+00 4.379617422819137573e-02 3.086152076721191406e-01 -7.667899131774902344e-01 -1.103697061538696289e+00 -1.349834352731704712e-01 3.744801878929138184e-01 -1.236729979515075684e+00 5.197999477386474609e-01 8.728294372558593750e-01 1.311666369438171387e+00 6.510825753211975098e-01 1.270140558481216431e-01 1.138351440429687500e+00 9.868408553302288055e-03 8.454405069351196289e-01 -6.501811146736145020e-01 -1.168875023722648621e-01 6.649485230445861816e-01 -2.078520059585571289e+00 -6.010375618934631348e-01 -7.675849199295043945e-01 3.540157377719879150e-01 -5.897098183631896973e-01 3.362488932907581329e-03