-1.526265722656250000e+04
-1.526052636718750000e+04
-1.525984277343750000e+04
-1.525804394531250000e+04
-1.525607128906250000e+04
-1.525308593750000000e+04
-1.525301953125000000e+04
-1.525276660156250000e+04
-1.525264550781250000e+04
-1.525222265625000000e+04
-1.525206835937500000e+04
-1.525199316406250000e+04
-1.525156542968750000e+04
-1.525118652343750000e+04
-1.525113378906250000e+04
-1.525147167968750000e+04
-1.525257226562500000e+04
-1.525256445312500000e+04
-1.525220410156250000e+04
-1.525179296875000000e+04
-1.525167675781250000e+04
-1.525158105468750000e+04
-1.525148535156250000e+04
-1.525145019531250000e+04
-1.525143847656250000e+04
-1.525143164062500000e+04
-1.525143164062500000e+04
-1.525143066406250000e+04
-1.525155761718750000e+04
-1.525160253906250000e+04
-1.525156542968750000e+04
-1.525154492187500000e+04
-1.525089550781250000e+04
-1.525048242187500000e+04
-1.525045703125000000e+04
-1.525038671875000000e+04
-1.525040820312500000e+04
-1.525044921875000000e+04
-1.525058300781250000e+04
-1.525070800781250000e+04
-1.525075000000000000e+04
-1.525086035156250000e+04
-1.525097656250000000e+04
-1.525100878906250000e+04
-1.525102929687500000e+04
-1.525103808593750000e+04
-1.525106933593750000e+04
-1.525115527343750000e+04
-1.525129394531250000e+04
-1.525135351562500000e+04
-1.525171093750000000e+04
-1.525187890625000000e+04
-1.525222949218750000e+04
-1.525309179687500000e+04
-1.525332421875000000e+04
-1.525354980468750000e+04
-1.525388085937500000e+04
-1.525389257812500000e+04
-1.525358593750000000e+04
-1.525297656250000000e+04
-1.525227148437500000e+04
-1.525216015625000000e+04
-1.525194726562500000e+04
-1.525166992187500000e+04
-1.525136132812500000e+04
-1.525130468750000000e+04
-1.525130566406250000e+04
-1.525152734375000000e+04
-1.525216406250000000e+04
-1.525309179687500000e+04
-1.525327441406250000e+04
-1.525327832031250000e+04
-1.525325195312500000e+04
-1.525297265625000000e+04
-1.525137500000000000e+04
-1.525118847656250000e+04
-1.525081835937500000e+04
-1.525087695312500000e+04
-1.525087890625000000e+04
-1.525080273437500000e+04
-1.525072851562500000e+04
-1.525065917968750000e+04
-1.525072949218750000e+04
-1.525137011718750000e+04
-1.525146972656250000e+04
-1.525168847656250000e+04
-1.525168750000000000e+04
-1.525160546875000000e+04
-1.525103320312500000e+04
-1.525097167968750000e+04
-1.525080175781250000e+04
-1.525062792968750000e+04
-1.525054199218750000e+04
-1.525054980468750000e+04
-1.525055957031250000e+04
-1.525061914062500000e+04
-1.525085351562500000e+04
-1.525088867187500000e+04
-1.525092187500000000e+04
-1.525098632812500000e+04
-1.525105078125000000e+04
-1.525117773437500000e+04
-1.525124121093750000e+04
-1.525142089843750000e+04
-1.525151464843750000e+04
-1.525151660156250000e+04
-1.525148535156250000e+04
-1.525169531250000000e+04
-1.525174609375000000e+04
-1.525186425781250000e+04
-1.525192480468750000e+04
-1.525210253906250000e+04
-1.525215820312500000e+04
-1.525236035156250000e+04
-1.525239550781250000e+04
-1.525238085937500000e+04
-1.525236425781250000e+04
-1.525230371093750000e+04
-1.525215722656250000e+04
-1.525215429687500000e+04
-1.525220703125000000e+04
-1.525225781250000000e+04
-1.525278125000000000e+04
-1.525308886718750000e+04
-1.525316601562500000e+04
-1.525325976562500000e+04
-1.525327050781250000e+04
-1.525327246093750000e+04
-1.525284277343750000e+04
-1.525281835937500000e+04
-1.525268164062500000e+04
-1.525267382812500000e+04
-1.525265625000000000e+04
-1.525260351562500000e+04
-1.525255859375000000e+04
-1.525236816406250000e+04
-1.525239355468750000e+04
-1.525277539062500000e+04
-1.525288671875000000e+04
-1.525319531250000000e+04
-1.525352734375000000e+04
-1.525366894531250000e+04
-1.525365332031250000e+04
-1.525363085937500000e+04
-1.525352441406250000e+04
-1.525330175781250000e+04
-1.525285156250000000e+04
-1.525228808593750000e+04
-1.525212011718750000e+04
-1.525187695312500000e+04
-1.525135156250000000e+04
-1.525118457031250000e+04
-1.525126074218750000e+04
-1.525133398437500000e+04
-1.525161621093750000e+04
-1.525171289062500000e+04
-1.525180371093750000e+04
-1.525201953125000000e+04
-1.525209472656250000e+04
-1.525217089843750000e+04
-1.525224023437500000e+04
-1.525231640625000000e+04
-1.525255175781250000e+04
-1.525269531250000000e+04
-1.525257714843750000e+04
-1.525196875000000000e+04
-1.525157519531250000e+04
-1.525098144531250000e+04
-1.525075292968750000e+04
-1.525054785156250000e+04
-1.525028808593750000e+04
-1.525029101562500000e+04
-1.525034375000000000e+04
-1.525045117187500000e+04
-1.525062207031250000e+04
-1.525068750000000000e+04
-1.525140039062500000e+04
-1.525145117187500000e+04
-1.525152441406250000e+04
-1.525060742187500000e+04
-1.525058300781250000e+04
-1.525061621093750000e+04
-1.525159179687500000e+04
-1.525169335937500000e+04
-1.525161132812500000e+04
-1.525099121093750000e+04
-1.525074804687500000e+04
-1.525053027343750000e+04
-1.525058007812500000e+04
-1.525104589843750000e+04
-1.525249804687500000e+04
-1.525267480468750000e+04
-1.525276464843750000e+04
-1.525280761718750000e+04
-1.525271777343750000e+04
-1.525255664062500000e+04
-1.525204882812500000e+04
-1.525150488281250000e+04
-1.525152050781250000e+04
-1.525157128906250000e+04
-1.525165234375000000e+04
-1.525155371093750000e+04
-1.525137695312500000e+04
-1.525109375000000000e+04
-1.525103613281250000e+04
-1.525067285156250000e+04
-1.525049511718750000e+04
-1.525025976562500000e+04
-1.525016503906250000e+04
-1.525014453125000000e+04
-1.524992968750000000e+04
-1.524996093750000000e+04
-1.525000292968750000e+04
-1.525003125000000000e+04
-1.525044042968750000e+04
-1.525055468750000000e+04
-1.525097363281250000e+04
-1.525097460937500000e+04
-1.525075683593750000e+04
-1.525050976562500000e+04
-1.525029003906250000e+04
-1.525025097656250000e+04
-1.525022167968750000e+04
-1.525028320312500000e+04
-1.525066503906250000e+04
-1.525097363281250000e+04
-1.525125781250000000e+04
-1.525159472656250000e+04
-1.525153320312500000e+04
-1.525144726562500000e+04
-1.525058007812500000e+04
-1.525109375000000000e+04
-1.525110937500000000e+04
-1.524993261718750000e+04
-1.524969921875000000e+04
-1.524958984375000000e+04
-1.524910156250000000e+04
-1.524909570312500000e+04
-1.524917187500000000e+04
-1.524918164062500000e+04
-1.524917675781250000e+04
-1.524916796875000000e+04
-1.524919140625000000e+04
-1.524927441406250000e+04
-1.525078515625000000e+04
-1.525040917968750000e+04
-1.525032714843750000e+04
-1.524938769531250000e+04
-1.524931542968750000e+04
-1.524924609375000000e+04
-1.524917968750000000e+04
-1.524887890625000000e+04
-1.524884277343750000e+04
-1.524884863281250000e+04
-1.524886328125000000e+04
-1.524894531250000000e+04
-1.524924902343750000e+04
-1.524953906250000000e+04
-1.524961816406250000e+04
-1.524970605468750000e+04
-1.525063867187500000e+04
-1.525081640625000000e+04
-1.525097851562500000e+04
-1.525123828125000000e+04
-1.525140722656250000e+04
-1.525140722656250000e+04
-1.525138964843750000e+04
-1.525125878906250000e+04
-1.525155371093750000e+04
-1.525156054687500000e+04
-1.525156347656250000e+04
-1.525150000000000000e+04
-1.525137695312500000e+04
-1.525097363281250000e+04
-1.525059570312500000e+04
-1.524985156250000000e+04
-1.524958105468750000e+04
-1.524882519531250000e+04
-1.524838183593750000e+04
-1.524943359375000000e+04
-1.524956347656250000e+04
-1.525093457031250000e+04
-1.525094726562500000e+04
-1.525093359375000000e+04
-1.525062597656250000e+04
-1.524995605468750000e+04
-1.524977539062500000e+04
-1.524971582031250000e+04
-1.524945507812500000e+04
-1.524954589843750000e+04
-1.524997753906250000e+04
-1.525005273437500000e+04
-1.525049121093750000e+04
-1.525162109375000000e+04
-1.525174218750000000e+04
-1.525196777343750000e+04
-1.525217968750000000e+04
-1.525245117187500000e+04
-1.525229492187500000e+04
-1.525220800781250000e+04
-1.525192089843750000e+04
-1.525093847656250000e+04
-1.525084863281250000e+04
-1.525086718750000000e+04
-1.525108398437500000e+04
-1.525111132812500000e+04
-1.525097851562500000e+04
-1.525089941406250000e+04
-1.525050488281250000e+04
-1.525018359375000000e+04
-1.524997851562500000e+04
-1.524952246093750000e+04
-1.524956933593750000e+04
-1.524993066406250000e+04
-1.525036816406250000e+04
-1.525040722656250000e+04
-1.525056640625000000e+04
-1.525057812500000000e+04
-1.525059082031250000e+04
-1.525067675781250000e+04
-1.525088183593750000e+04
-1.525106152343750000e+04
-1.525127832031250000e+04
-1.525137792968750000e+04
-1.525130273437500000e+04
-1.525125000000000000e+04
-1.525113378906250000e+04
-1.525106640625000000e+04
-1.525092089843750000e+04
-1.524993652343750000e+04
-1.524975976562500000e+04
-1.524906933593750000e+04
-1.524854589843750000e+04
-1.524849023437500000e+04
-1.524858496093750000e+04
-1.524861132812500000e+04
-1.524866503906250000e+04
-1.524875781250000000e+04
-1.524877832031250000e+04
-1.524891699218750000e+04
-1.524940917968750000e+04
-1.524960156250000000e+04
-1.524962988281250000e+04
-1.524965429687500000e+04
-1.524980761718750000e+04
-1.524972656250000000e+04
-1.524931250000000000e+04
-1.524919531250000000e+04
-1.524883984375000000e+04
-1.524879492187500000e+04
-1.524873144531250000e+04
-1.524938867187500000e+04
-1.524996777343750000e+04
-1.525011523437500000e+04
-1.525118261718750000e+04
-1.525121875000000000e+04
-1.525126367187500000e+04
-1.525126171875000000e+04
-1.525123046875000000e+04
-1.525117773437500000e+04
-1.525099414062500000e+04
-1.525001953125000000e+04
-1.524993359375000000e+04
-1.524942480468750000e+04
-1.524952441406250000e+04
-1.525024609375000000e+04
-1.525032812500000000e+04
-1.525063964843750000e+04
-1.525098339843750000e+04
-1.525120312500000000e+04
-1.525132226562500000e+04
-1.525047460937500000e+04
-1.524958398437500000e+04
-1.524940429687500000e+04
-1.524936230468750000e+04
-1.524929199218750000e+04
-1.524928710937500000e+04
-1.524951464843750000e+04
-1.524861621093750000e+04
-1.524842382812500000e+04
-1.524842773437500000e+04
-1.524852050781250000e+04
-1.524873632812500000e+04
-1.524899511718750000e+04
-1.524917089843750000e+04
-1.524921972656250000e+04
-1.524926171875000000e+04
-1.524929980468750000e+04
-1.524936035156250000e+04
-1.524928710937500000e+04
-1.524916113281250000e+04
-1.524912988281250000e+04
-1.524893945312500000e+04
-1.524887402343750000e+04
-1.524873046875000000e+04
-1.524867089843750000e+04
-1.524861523437500000e+04
-1.524867578125000000e+04
-1.524901074218750000e+04
-1.524911328125000000e+04
-1.524917382812500000e+04
-1.524929199218750000e+04
-1.524935058593750000e+04
-1.524946972656250000e+04
-1.524966992187500000e+04
-1.524976074218750000e+04
-1.524974121093750000e+04
-1.524971386718750000e+04
-1.524962890625000000e+04
-1.524925488281250000e+04
-1.524906250000000000e+04
-1.524843554687500000e+04
-1.524850976562500000e+04
-1.524928710937500000e+04
-1.524952539062500000e+04
-1.524963769531250000e+04
-1.524999511718750000e+04
-1.525007226562500000e+04
-1.524975878906250000e+04
-1.524937890625000000e+04
-1.524764648437500000e+04
-1.524759082031250000e+04
-1.524755273437500000e+04
-1.524776171875000000e+04
-1.524782519531250000e+04
-1.524816992187500000e+04
-1.524824218750000000e+04
-1.524819238281250000e+04
-1.524768847656250000e+04
-1.524750976562500000e+04
-1.524739550781250000e+04
-1.524748339843750000e+04
-1.524765332031250000e+04
-1.524779101562500000e+04
-1.524784667968750000e+04
-1.524796582031250000e+04
-1.524899511718750000e+04
-1.524967968750000000e+04
-1.525007910156250000e+04
-1.525034667968750000e+04
-1.525017871093750000e+04
-1.524976953125000000e+04
-1.524967382812500000e+04
-1.524907324218750000e+04
-1.524888281250000000e+04
-1.524852539062500000e+04
-1.524844531250000000e+04
-1.524804980468750000e+04
-1.524800097656250000e+04
-1.524799414062500000e+04
-1.524806738281250000e+04
-1.524836035156250000e+04
-1.524887011718750000e+04
-1.524892675781250000e+04
-1.524913378906250000e+04
-1.524917382812500000e+04
-1.524919335937500000e+04
-1.524903808593750000e+04
-1.524889941406250000e+04
-1.524873828125000000e+04
-1.524864746093750000e+04
-1.524849316406250000e+04
-1.524827636718750000e+04
-1.524800683593750000e+04
-1.524791210937500000e+04
-1.524786718750000000e+04
-1.524755566406250000e+04
-1.524760839843750000e+04
-1.524762890625000000e+04
-1.524765136718750000e+04
-1.524767578125000000e+04
-1.524770410156250000e+04
-1.524792480468750000e+04
-1.524806542968750000e+04
-1.524817578125000000e+04
-1.524789648437500000e+04
-1.524738476562500000e+04
-1.524733593750000000e+04
-1.524764648437500000e+04
-1.524777539062500000e+04
-1.524807324218750000e+04
-1.524812402343750000e+04
-1.524825976562500000e+04
-1.524841406250000000e+04
-1.524842578125000000e+04
-1.524842285156250000e+04
-1.524841308593750000e+04
-1.524832421875000000e+04
-1.524826367187500000e+04
-1.524816113281250000e+04
-1.524805957031250000e+04
-1.524797363281250000e+04
-1.524783007812500000e+04
-1.524751269531250000e+04
-1.524729101562500000e+04
-1.524734667968750000e+04
-1.524789453125000000e+04
-1.524805761718750000e+04
-1.524797167968750000e+04
-1.524792675781250000e+04
-1.524748925781250000e+04
-1.524729980468750000e+04
-1.524680761718750000e+04
-1.524654589843750000e+04
-1.524626953125000000e+04
-1.524613769531250000e+04
-1.524608398437500000e+04
-1.524612304687500000e+04
-1.524664648437500000e+04
-1.524692089843750000e+04
-1.524746191406250000e+04
-1.524749121093750000e+04
-1.524745117187500000e+04
-1.524742089843750000e+04
-1.524728808593750000e+04
-1.524723437500000000e+04
-1.524659863281250000e+04
-1.524650195312500000e+04
-1.524653906250000000e+04
-1.524673046875000000e+04
-1.524687402343750000e+04
-1.524695410156250000e+04
-1.524739941406250000e+04
-1.524749414062500000e+04
-1.524784570312500000e+04
-1.524816601562500000e+04
-1.524873632812500000e+04
-1.524878808593750000e+04
-1.524897851562500000e+04
-1.524927246093750000e+04
-1.524941894531250000e+04
-1.524944140625000000e+04
-1.524945703125000000e+04
-1.524948046875000000e+04
-1.524894335937500000e+04
-1.524884375000000000e+04
-1.524806250000000000e+04
-1.524791601562500000e+04
-1.524776855468750000e+04
-1.524669433593750000e+04
-1.524694824218750000e+04
-1.524763574218750000e+04
-1.524776074218750000e+04
-1.524801074218750000e+04
-1.524916015625000000e+04
-1.524926171875000000e+04
-1.524972363281250000e+04
-1.525003125000000000e+04
-1.525031054687500000e+04
-1.524902539062500000e+04
-1.524875683593750000e+04
-1.524850195312500000e+04
-1.524788964843750000e+04
-1.524796875000000000e+04
-1.524811523437500000e+04
-1.524820410156250000e+04
-1.524840429687500000e+04
-1.524851074218750000e+04
-1.524957617187500000e+04
-1.524989648437500000e+04
-1.524974316406250000e+04
-1.524946582031250000e+04
-1.524927539062500000e+04
-1.524921875000000000e+04
-1.524921093750000000e+04
-1.524962695312500000e+04
-1.524978710937500000e+04
-1.524994238281250000e+04
-1.525020117187500000e+04
-1.525015136718750000e+04
-1.525000683593750000e+04
-1.524931347656250000e+04
-1.524856054687500000e+04
-1.524793554687500000e+04
-1.524647363281250000e+04
-1.524667382812500000e+04
-1.524699511718750000e+04
-1.524711718750000000e+04
-1.524730566406250000e+04
-1.524749609375000000e+04
-1.524756445312500000e+04
-1.524804589843750000e+04
-1.524845800781250000e+04
-1.524850488281250000e+04
-1.524851953125000000e+04
-1.524853027343750000e+04
-1.524853613281250000e+04
-1.524853320312500000e+04
-1.524850781250000000e+04
-1.524850097656250000e+04
-1.524858789062500000e+04
-1.524865039062500000e+04
-1.524867578125000000e+04
-1.524870117187500000e+04
-1.524875781250000000e+04
-1.524899511718750000e+04
-1.524902734375000000e+04
-1.524908007812500000e+04
-1.524913476562500000e+04
-1.524913867187500000e+04
-1.524885253906250000e+04
-1.524872851562500000e+04
-1.524852539062500000e+04
-1.524832421875000000e+04
-1.524825976562500000e+04
-1.524820117187500000e+04
-1.524796289062500000e+04
-1.524781250000000000e+04
-1.524761425781250000e+04
-1.524747656250000000e+04
-1.524738867187500000e+04
-1.524728515625000000e+04
-1.524727929687500000e+04
-1.524700488281250000e+04
-1.524682226562500000e+04
-1.524649804687500000e+04
-1.524643164062500000e+04
-1.524662792968750000e+04
-1.524673730468750000e+04
-1.524679492187500000e+04
-1.524697167968750000e+04
-1.524745898437500000e+04
-1.524757812500000000e+04
-1.524788769531250000e+04
-1.524804589843750000e+04
-1.524813281250000000e+04
-1.524817871093750000e+04
-1.524840722656250000e+04
-1.524848242187500000e+04
-1.524862890625000000e+04
-1.524933300781250000e+04
-1.524971191406250000e+04
-1.524967382812500000e+04
-1.524955566406250000e+04
-1.524879003906250000e+04
-1.524822851562500000e+04
-1.524834179687500000e+04
-1.524917578125000000e+04
-1.524934277343750000e+04
-1.524915039062500000e+04
-1.524862988281250000e+04
-1.524780078125000000e+04
-1.524734277343750000e+04
-1.524732910156250000e+04
-1.524732519531250000e+04
-1.524735449218750000e+04
-1.524762890625000000e+04
-1.524796777343750000e+04
-1.524804492187500000e+04
-1.524803125000000000e+04
-1.524801464843750000e+04
-1.524799414062500000e+04
-1.524793945312500000e+04
-1.524749121093750000e+04
-1.524717675781250000e+04
-1.524602441406250000e+04
-1.524537792968750000e+04
-1.524479394531250000e+04
-1.524461230468750000e+04
-1.524458984375000000e+04
-1.524456542968750000e+04
-1.524459082031250000e+04
-1.524459472656250000e+04
-1.524461425781250000e+04
-1.524471386718750000e+04
-1.524474218750000000e+04
-1.524484179687500000e+04
-1.524525097656250000e+04
-1.524561132812500000e+04
-1.524580566406250000e+04
-1.524590332031250000e+04
-1.524592285156250000e+04
-1.524593554687500000e+04
-1.524581835937500000e+04
-1.524574121093750000e+04
-1.524570117187500000e+04
-1.524568652343750000e+04
-1.524572753906250000e+04
-1.524673437500000000e+04
-1.524684375000000000e+04
-1.524735156250000000e+04
-1.524792578125000000e+04
-1.524795117187500000e+04
-1.524757617187500000e+04
-1.524714648437500000e+04
-1.524702246093750000e+04
-1.524695996093750000e+04
-1.524634472656250000e+04
-1.524623242187500000e+04
-1.524607226562500000e+04
-1.524586914062500000e+04
-1.524570410156250000e+04
-1.524566406250000000e+04
-1.524561425781250000e+04
-1.524558593750000000e+04
-1.524555957031250000e+04
-1.524555761718750000e+04
-1.524579687500000000e+04
-1.524601464843750000e+04
-1.524641113281250000e+04
-1.524646386718750000e+04
-1.524657617187500000e+04
-1.524670800781250000e+04
-1.524676660156250000e+04
-1.524734960937500000e+04
-1.524761523437500000e+04
-1.524776464843750000e+04
-1.524782617187500000e+04
-1.524798339843750000e+04
-1.524793066406250000e+04
-1.524778613281250000e+04
-1.524764746093750000e+04
-1.524749121093750000e+04
-1.524738085937500000e+04
-1.524722656250000000e+04
-1.524712500000000000e+04
-1.524695117187500000e+04
-1.524685449218750000e+04
-1.524679589843750000e+04
-1.524679101562500000e+04
-1.524691015625000000e+04
-1.524693750000000000e+04
-1.524691308593750000e+04
-1.524683789062500000e+04
-1.524669824218750000e+04
-1.524668554687500000e+04
-1.524667285156250000e+04
-1.524668359375000000e+04
-1.524673144531250000e+04
-1.524682714843750000e+04
-1.524684667968750000e+04
-1.524690820312500000e+04
-1.524712597656250000e+04
-1.524720507812500000e+04
-1.524739062500000000e+04
-1.524747558593750000e+04
-1.524742968750000000e+04
-1.524725000000000000e+04
-1.524695800781250000e+04
-1.524687304687500000e+04
-1.524679687500000000e+04
-1.524632128906250000e+04
-1.524625976562500000e+04
-1.524592285156250000e+04
-1.524508203125000000e+04
-1.524487207031250000e+04
-1.524410156250000000e+04
-1.524412109375000000e+04
-1.524414453125000000e+04
-1.524436132812500000e+04
-1.524441992187500000e+04
-1.524466406250000000e+04
-1.524484277343750000e+04
-1.524527246093750000e+04
-1.524532910156250000e+04
-1.524548242187500000e+04
-1.524556054687500000e+04
-1.524560937500000000e+04
-1.524562109375000000e+04
-1.524568359375000000e+04
-1.524587792968750000e+04
-1.524632421875000000e+04
-1.524644335937500000e+04
-1.524656738281250000e+04
-1.524796093750000000e+04
-1.524817578125000000e+04
-1.524785839843750000e+04
-1.524732617187500000e+04
-1.524645312500000000e+04
-1.524633593750000000e+04
-1.524621972656250000e+04
-1.524572070312500000e+04
-1.524522167968750000e+04
-1.524549609375000000e+04
-1.524570117187500000e+04
-1.524584570312500000e+04
-1.524591601562500000e+04
-1.524622851562500000e+04
-1.524643164062500000e+04
-1.524657031250000000e+04
-1.524660253906250000e+04
-1.524662109375000000e+04
-1.524659375000000000e+04
-1.524645507812500000e+04
-1.524631640625000000e+04
-1.524620312500000000e+04
-1.524530859375000000e+04
-1.524522851562500000e+04
-1.524521582031250000e+04
-1.524519921875000000e+04
-1.524437597656250000e+04
-1.524394628906250000e+04
-1.524374414062500000e+04
-1.524251562500000000e+04
-1.524263281250000000e+04
-1.524276367187500000e+04
-1.524399218750000000e+04
-1.524456347656250000e+04
-1.524474414062500000e+04
-1.524561523437500000e+04
-1.524571484375000000e+04
-1.524592871093750000e+04
-1.524594921875000000e+04
-1.524561621093750000e+04
-1.524563085937500000e+04
-1.524579101562500000e+04
-1.524583789062500000e+04
-1.524585546875000000e+04
-1.524591894531250000e+04
-1.524594042968750000e+04
-1.524625195312500000e+04
-1.524631152343750000e+04
-1.524634082031250000e+04
-1.524642968750000000e+04
-1.524632226562500000e+04
-1.524622363281250000e+04
-1.524633398437500000e+04
-1.524681640625000000e+04
-1.524699121093750000e+04
-1.524715429687500000e+04
-1.524768066406250000e+04
-1.524776269531250000e+04
-1.524777148437500000e+04
-1.524778222656250000e+04
-1.524785156250000000e+04
-1.524784667968750000e+04
-1.524782910156250000e+04
-1.524781250000000000e+04
-1.524780078125000000e+04
-1.524778515625000000e+04
-1.524775195312500000e+04
-1.524773144531250000e+04
-1.524770605468750000e+04
-1.524768066406250000e+04
-1.524764941406250000e+04
-1.524761523437500000e+04
-1.524664843750000000e+04
-1.524613964843750000e+04
-1.524607714843750000e+04
-1.524602148437500000e+04
-1.524586914062500000e+04
-1.524573632812500000e+04
-1.524540332031250000e+04
-1.524541113281250000e+04
-1.524570605468750000e+04
-1.524576464843750000e+04
-1.524621777343750000e+04
-1.524618359375000000e+04
-1.524572558593750000e+04
-1.524555859375000000e+04
-1.524556250000000000e+04
-1.524559082031250000e+04
-1.524567187500000000e+04
-1.524571484375000000e+04
-1.524583203125000000e+04
-1.524591992187500000e+04
-1.524579882812500000e+04
-1.524575585937500000e+04
-1.524578320312500000e+04
-1.524580078125000000e+04
-1.524583398437500000e+04
-1.524588378906250000e+04
-1.524587792968750000e+04
-1.524578027343750000e+04
-1.524574121093750000e+04
-1.524600292968750000e+04
-1.524628906250000000e+04
-1.524688964843750000e+04
-1.524690234375000000e+04
-1.524683789062500000e+04
-1.524648242187500000e+04
-1.524559472656250000e+04
-1.524484277343750000e+04
-1.524482421875000000e+04
-1.524485546875000000e+04
-1.524497363281250000e+04
-1.524606542968750000e+04
-1.524718750000000000e+04
-1.524741992187500000e+04
-1.524779687500000000e+04
-1.524776953125000000e+04
-1.524757812500000000e+04
-1.524742382812500000e+04
-1.524676464843750000e+04
-1.524580859375000000e+04
-1.524440820312500000e+04
-1.524377734375000000e+04
-1.524458886718750000e+04
-1.524466992187500000e+04
-1.524474609375000000e+04
-1.524513574218750000e+04
-1.524511718750000000e+04
-1.524506933593750000e+04
-1.524503906250000000e+04
-1.524441113281250000e+04
-1.524438574218750000e+04
-1.524432714843750000e+04
-1.524409277343750000e+04
-1.524395019531250000e+04
-1.524368554687500000e+04
-1.524320117187500000e+04
-1.524304296875000000e+04
-1.524294140625000000e+04
-1.524290234375000000e+04
-1.524314062500000000e+04
-1.524364062500000000e+04
-1.524475488281250000e+04
-1.524546093750000000e+04
-1.524545996093750000e+04
-1.524523144531250000e+04
-1.524419335937500000e+04
-1.524405566406250000e+04
-1.524378320312500000e+04
-1.524338476562500000e+04
-1.524250781250000000e+04
-1.524247363281250000e+04
-1.524249511718750000e+04
-1.524258593750000000e+04
-1.524243652343750000e+04
-1.524230273437500000e+04
-1.524221191406250000e+04
-1.524208886718750000e+04
-1.524212890625000000e+04
-1.524337597656250000e+04
-1.524390332031250000e+04
-1.524407226562500000e+04
-1.524424023437500000e+04
-1.524468261718750000e+04
-1.524493554687500000e+04
-1.524546484375000000e+04
-1.524567675781250000e+04
-1.524575683593750000e+04
-1.524581640625000000e+04
-1.524586914062500000e+04
-1.524587207031250000e+04
-1.524586718750000000e+04
-1.524584667968750000e+04
-1.524579003906250000e+04
-1.524568164062500000e+04
-1.524544238281250000e+04
-1.524497460937500000e+04
-1.524401464843750000e+04
-1.524316894531250000e+04
-1.524272265625000000e+04
-1.524247167968750000e+04
-1.524236425781250000e+04
-1.524227050781250000e+04
-1.524209082031250000e+04
-1.524229101562500000e+04
-1.524241601562500000e+04
-1.524276660156250000e+04
-1.524309765625000000e+04
-1.524347460937500000e+04
-1.524377343750000000e+04
-1.524396777343750000e+04
-1.524406152343750000e+04
-1.524432714843750000e+04
-1.524440625000000000e+04
-1.524501367187500000e+04
-1.524511425781250000e+04
-1.524522949218750000e+04
-1.524522167968750000e+04
-1.524489453125000000e+04
-1.524425976562500000e+04
-1.524394628906250000e+04
-1.524318554687500000e+04
-1.524262500000000000e+04
-1.524238085937500000e+04
-1.524234082031250000e+04
-1.524258007812500000e+04
-1.524264355468750000e+04
-1.524337109375000000e+04
-1.524375585937500000e+04
-1.524420117187500000e+04
-1.524440039062500000e+04
-1.524456250000000000e+04
-1.524449902343750000e+04
-1.524437011718750000e+04
-1.524432324218750000e+04
-1.524431542968750000e+04
-1.524430859375000000e+04
-1.524431445312500000e+04
-1.524433007812500000e+04
-1.524429980468750000e+04
-1.524426953125000000e+04
-1.524419531250000000e+04
-1.524384765625000000e+04
-1.524368847656250000e+04
-1.524335546875000000e+04
-1.524327929687500000e+04
-1.524295605468750000e+04
-1.524229003906250000e+04
-1.524218066406250000e+04
-1.524133496093750000e+04
-1.524085644531250000e+04
-1.524057421875000000e+04
-1.524049804687500000e+04
-1.524044238281250000e+04
-1.524035937500000000e+04
-1.524035937500000000e+04
