1.335730934143066406e+01 2.475887686014175415e-01 2.286128103733062744e-01 2.475887686014175415e-01 4.261829757690429688e+01 2.553107440471649170e-01 2.286128103733062744e-01 2.553107440471649170e-01 3.956689834594726562e+01
1.256865787506103516e+01 2.005446672439575195e+00 2.228414773941040039e+00 2.005446672439575195e+00 4.460622024536132812e+01 3.620374917984008789e+00 2.228414773941040039e+00 3.620374917984008789e+00 4.391716003417968750e+01
1.332325839996337891e+01 2.041913986206054688e+00 2.368200778961181641e+00 2.041913986206054688e+00 4.500257492065429688e+01 4.140724182128906250e+00 2.368200778961181641e+00 4.140724182128906250e+00 4.442668533325195312e+01
1.584337902069091797e+01 1.884132504463195801e+00 2.492677211761474609e+00 1.884132504463195801e+00 4.499021530151367188e+01 5.233841419219970703e+00 2.492677211761474609e+00 5.233841419219970703e+00 4.473736190795898438e+01
1.948229026794433594e+01 1.477201461791992188e+00 2.331341028213500977e+00 1.477201461791992188e+00 4.230559921264648438e+01 6.059582233428955078e+00 2.331341028213500977e+00 6.059582233428955078e+00 4.265469360351562500e+01
2.297685813903808594e+01 2.783183813095092773e+00 -1.312695503234863281e+00 2.783183813095092773e+00 1.899261093139648438e+01 2.375212669372558594e+00 -1.312695503234863281e+00 2.375212669372558594e+00 1.887846946716308594e+01
1.898326110839843750e+01 3.133308410644531250e+00 -3.876137733459472656e+00 3.133308410644531250e+00 1.286067962646484375e+01 -5.690317749977111816e-01 -3.876137733459472656e+00 -5.690317749977111816e-01 1.090993404388427734e+01
1.542103481292724609e+01 2.967187404632568359e+00 -5.504613876342773438e+00 2.967187404632568359e+00 9.107497215270996094e+00 -3.351897954940795898e+00 -5.504613876342773438e+00 -3.351897954940795898e+00 4.794333457946777344e+00
1.483486461639404297e+01 2.829395294189453125e+00 -5.769812583923339844e+00 2.829395294189453125e+00 8.485774993896484375e+00 -4.065035820007324219e+00 -5.769812583923339844e+00 -4.065035820007324219e+00 3.488434314727783203e+00
1.383145809173583984e+01 2.229315757751464844e+00 -6.108964920043945312e+00 2.229315757751464844e+00 7.439177513122558594e+00 -5.805018424987792969e+00 -6.108964920043945312e+00 -5.805018424987792969e+00 4.059919714927673340e-01
1.388656234741210938e+01 1.954020857810974121e+00 -6.060384750366210938e+00 1.954020857810974121e+00 7.349347114562988281e+00 -6.291914939880371094e+00 -6.060384750366210938e+00 -6.291914939880371094e+00 -2.873589694499969482e-01
1.394844245910644531e+01 1.798395514488220215e+00 -6.011016845703125000e+00 1.798395514488220215e+00 7.311217784881591797e+00 -6.504710674285888672e+00 -6.011016845703125000e+00 -6.504710674285888672e+00 -5.883378982543945312e-01
1.544324207305908203e+01 8.153473734855651855e-01 -5.492494106292724609e+00 8.153473734855651855e-01 7.596717834472656250e+00 -7.565915584564208984e+00 -5.492494106292724609e+00 -7.565915584564208984e+00 -1.800579547882080078e+00
1.956801605224609375e+01 -6.740720272064208984e-01 -4.249037265777587891e+00 -6.740720272064208984e-01 8.735488891601562500e+00 -8.481964111328125000e+00 -4.249037265777587891e+00 -8.481964111328125000e+00 -2.233620882034301758e+00
2.192070579528808594e+01 -1.543916463851928711e+00 -3.328643560409545898e+00 -1.543916463851928711e+00 9.321726799011230469e+00 -8.732304573059082031e+00 -3.328643560409545898e+00 -8.732304573059082031e+00 -2.075413227081298828e+00
2.683751678466796875e+01 -4.075339794158935547e+00 -7.345735430717468262e-01 -4.075339794158935547e+00 1.114328098297119141e+01 -8.734084129333496094e+00 -7.345735430717468262e-01 -8.734084129333496094e+00 -7.943486571311950684e-01
2.771549415588378906e+01 -8.752282142639160156e+00 2.641176939010620117e+00 -8.752282142639160156e+00 1.817893409729003906e+01 -5.681654453277587891e+00 2.641176939010620117e+00 -5.681654453277587891e+00 6.212245464324951172e+00
2.732380485534667969e+01 -9.128992080688476562e+00 2.686899423599243164e+00 -9.128992080688476562e+00 1.956961059570312500e+01 -5.101439476013183594e+00 2.686899423599243164e+00 -5.101439476013183594e+00 7.444305419921875000e+00
2.549054908752441406e+01 -1.008768653869628906e+01 2.454869508743286133e+00 -1.008768653869628906e+01 2.583082389831542969e+01 -2.713220834732055664e+00 2.454869508743286133e+00 -2.713220834732055664e+00 1.302135086059570312e+01
2.430303955078125000e+01 -1.007972145080566406e+01 2.373452425003051758e+00 -1.007972145080566406e+01 3.044865036010742188e+01 -1.404503345489501953e+00 2.373452425003051758e+00 -1.404503345489501953e+00 1.737602806091308594e+01
2.403954315185546875e+01 -9.885870933532714844e+00 2.427509546279907227e+00 -9.885870933532714844e+00 3.174847221374511719e+01 -1.164606094360351562e+00 2.427509546279907227e+00 -1.164606094360351562e+00 1.872742271423339844e+01
2.381530380249023438e+01 -9.651516914367675781e+00 2.521718263626098633e+00 -9.651516914367675781e+00 3.289395523071289062e+01 -1.048782825469970703e+00 2.521718263626098633e+00 -1.048782825469970703e+00 1.999922561645507812e+01
2.349463272094726562e+01 -9.125783920288085938e+00 2.711920261383056641e+00 -9.125783920288085938e+00 3.421943664550781250e+01 -1.006389260292053223e+00 2.711920261383056641e+00 -1.006389260292053223e+00 2.160262680053710938e+01
2.328287124633789062e+01 -8.712645530700683594e+00 2.888453006744384766e+00 -8.712645530700683594e+00 3.487678909301757812e+01 -1.091065287590026855e+00 2.888453006744384766e+00 -1.091065287590026855e+00 2.249191856384277344e+01
2.319760322570800781e+01 -8.489633560180664062e+00 2.986148834228515625e+00 -8.489633560180664062e+00 3.517042922973632812e+01 -1.125248312950134277e+00 2.986148834228515625e+00 -1.125248312950134277e+00 2.292365074157714844e+01
2.311277389526367188e+01 -8.251416206359863281e+00 3.087795019149780273e+00 -8.251416206359863281e+00 3.539839172363281250e+01 -1.173541069030761719e+00 3.087795019149780273e+00 -1.173541069030761719e+00 2.328359031677246094e+01
2.299809646606445312e+01 -8.016191482543945312e+00 3.177012920379638672e+00 -8.016191482543945312e+00 3.560244750976562500e+01 -1.216561317443847656e+00 3.177012920379638672e+00 -1.216561317443847656e+00 2.355008125305175781e+01
2.291712570190429688e+01 -7.760152339935302734e+00 3.261025667190551758e+00 -7.760152339935302734e+00 3.580784988403320312e+01 -1.266698002815246582e+00 3.261025667190551758e+00 -1.266698002815246582e+00 2.385185050964355469e+01
2.170722007751464844e+01 -5.039247989654541016e+00 3.768354177474975586e+00 -5.039247989654541016e+00 3.694472122192382812e+01 -1.587467789649963379e+00 3.768354177474975586e+00 -1.587467789649963379e+00 2.438927459716796875e+01
2.027701377868652344e+01 -3.309883117675781250e+00 3.264132499694824219e+00 -3.309883117675781250e+00 3.811251449584960938e+01 -1.322788000106811523e+00 3.264132499694824219e+00 -1.322788000106811523e+00 2.316009712219238281e+01
1.876689720153808594e+01 -2.249336004257202148e+00 2.522311925888061523e+00 -2.249336004257202148e+00 3.920583343505859375e+01 -8.241114616394042969e-01 2.522311925888061523e+00 -8.241114616394042969e-01 2.185403633117675781e+01
1.789972877502441406e+01 -1.970054388046264648e+00 2.170063972473144531e+00 -1.970054388046264648e+00 3.950963973999023438e+01 -5.628068447113037109e-01 2.170063972473144531e+00 -5.628068447113037109e-01 2.123342323303222656e+01
2.479462623596191406e+00 -3.191512346267700195e+00 -1.775695979595184326e-01 -3.191512346267700195e+00 3.501090240478515625e+01 3.454564332962036133e+00 -1.775695979595184326e-01 3.454564332962036133e+00 1.371943569183349609e+01
-5.550983905792236328e+00 -1.450260758399963379e+00 5.106872320175170898e-01 -1.450260758399963379e+00 2.596879386901855469e+01 3.852734088897705078e+00 5.106872320175170898e-01 3.852734088897705078e+00 1.265809822082519531e+01
-6.015536308288574219e+00 -1.254380226135253906e+00 5.498763322830200195e-01 -1.254380226135253906e+00 2.542627906799316406e+01 3.857704401016235352e+00 5.498763322830200195e-01 3.857704401016235352e+00 1.261499404907226562e+01
-9.414392471313476562e+00 1.250846236944198608e-01 6.900112628936767578e-01 1.250846236944198608e-01 2.202899360656738281e+01 3.998434782028198242e+00 6.900112628936767578e-01 3.998434782028198242e+00 1.230818748474121094e+01
-1.034882736206054688e+01 5.108435153961181641e-01 6.666504144668579102e-01 5.108435153961181641e-01 2.131041908264160156e+01 4.062382221221923828e+00 6.666504144668579102e-01 4.062382221221923828e+00 1.219304656982421875e+01
-1.129041671752929688e+01 8.931143283843994141e-01 6.209617257118225098e-01 8.931143283843994141e-01 2.074391746520996094e+01 4.156860828399658203e+00 6.209617257118225098e-01 4.156860828399658203e+00 1.210818099975585938e+01
-1.310874938964843750e+01 1.622005105018615723e+00 4.444436430931091309e-01 1.622005105018615723e+00 1.995509719848632812e+01 4.329094409942626953e+00 4.444436430931091309e-01 4.329094409942626953e+00 1.192666816711425781e+01
-1.440499877929687500e+01 2.179257869720458984e+00 2.451910823583602905e-01 2.179257869720458984e+00 1.967252922058105469e+01 4.513062953948974609e+00 2.451910823583602905e-01 4.513062953948974609e+00 1.184493446350097656e+01
-1.477167415618896484e+01 2.366793155670166016e+00 1.763632595539093018e-01 2.366793155670166016e+00 1.962874984741210938e+01 4.587371826171875000e+00 1.763632595539093018e-01 4.587371826171875000e+00 1.182949542999267578e+01
-1.571242713928222656e+01 2.945219755172729492e+00 -6.686329096555709839e-02 2.945219755172729492e+00 1.968898200988769531e+01 4.810791492462158203e+00 -6.686329096555709839e-02 4.810791492462158203e+00 1.191097927093505859e+01
-1.663586044311523438e+01 3.803510189056396484e+00 -4.533727169036865234e-01 3.803510189056396484e+00 2.029899024963378906e+01 5.233907699584960938e+00 -4.533727169036865234e-01 5.233907699584960938e+00 1.263453388214111328e+01
-1.676357460021972656e+01 4.439028263092041016e+00 -7.613714933395385742e-01 4.439028263092041016e+00 2.096385383605957031e+01 5.680298328399658203e+00 -7.613714933395385742e-01 5.680298328399658203e+00 1.365129661560058594e+01
-1.637419509887695312e+01 5.227529048919677734e+00 -1.063792943954467773e+00 5.227529048919677734e+00 2.164134788513183594e+01 6.389379024505615234e+00 -1.063792943954467773e+00 6.389379024505615234e+00 1.540200519561767578e+01
-1.623926162719726562e+01 5.385590076446533203e+00 -1.121380567550659180e+00 5.385590076446533203e+00 2.170012283325195312e+01 6.526230335235595703e+00 -1.121380567550659180e+00 6.526230335235595703e+00 1.582613945007324219e+01
-1.595989513397216797e+01 5.698781967163085938e+00 -1.215171337127685547e+00 5.698781967163085938e+00 2.177248764038085938e+01 6.805484771728515625e+00 -1.215171337127685547e+00 6.805484771728515625e+00 1.665982246398925781e+01
-1.549868202209472656e+01 6.163219928741455078e+00 -1.312688469886779785e+00 6.163219928741455078e+00 2.163112449645996094e+01 7.213924884796142578e+00 -1.312688469886779785e+00 7.213924884796142578e+00 1.787998199462890625e+01
-1.499016284942626953e+01 6.597930908203125000e+00 -1.324566364288330078e+00 6.597930908203125000e+00 2.128268241882324219e+01 7.573921203613281250e+00 -1.324566364288330078e+00 7.573921203613281250e+00 1.892788505554199219e+01
-1.482989978790283203e+01 6.727921485900878906e+00 -1.309055089950561523e+00 6.727921485900878906e+00 2.107926750183105469e+01 7.670995712280273438e+00 -1.309055089950561523e+00 7.670995712280273438e+00 1.920294189453125000e+01
-1.368869400024414062e+01 7.316272735595703125e+00 -1.078584074974060059e+00 7.316272735595703125e+00 1.996928596496582031e+01 7.988431453704833984e+00 -1.078584074974060059e+00 7.988431453704833984e+00 2.016290473937988281e+01
-1.314760589599609375e+01 7.492737770080566406e+00 -9.226472973823547363e-01 7.492737770080566406e+00 1.947182273864746094e+01 7.992297172546386719e+00 -9.226472973823547363e-01 7.992297172546386719e+00 2.008020591735839844e+01
-1.192620277404785156e+01 7.651595592498779297e+00 -3.639950156211853027e-01 7.651595592498779297e+00 1.858399391174316406e+01 7.830005168914794922e+00 -3.639950156211853027e-01 7.830005168914794922e+00 1.919845581054687500e+01
-6.258063793182373047e+00 7.129431247711181641e+00 1.946858167648315430e+00 7.129431247711181641e+00 1.905689239501953125e+01 5.824664592742919922e+00 1.946858167648315430e+00 5.824664592742919922e+00 1.226239490509033203e+01
-4.215682506561279297e+00 6.925469398498535156e+00 2.696438074111938477e+00 6.925469398498535156e+00 2.019665908813476562e+01 4.710601329803466797e+00 2.696438074111938477e+00 4.710601329803466797e+00 9.448019027709960938e+00
-2.339884757995605469e+00 6.732402801513671875e+00 3.283566713333129883e+00 6.732402801513671875e+00 2.162128067016601562e+01 3.406129360198974609e+00 3.283566713333129883e+00 3.406129360198974609e+00 6.940178394317626953e+00
6.605382561683654785e-01 6.591951370239257812e+00 3.801601886749267578e+00 6.591951370239257812e+00 2.432803344726562500e+01 7.607814073562622070e-01 3.801601886749267578e+00 7.607814073562622070e-01 3.776464462280273438e+00
4.631530761718750000e+00 6.289187908172607422e+00 3.513382911682128906e+00 6.289187908172607422e+00 2.791916275024414062e+01 -3.012735366821289062e+00 3.513382911682128906e+00 -3.012735366821289062e+00 2.548671722412109375e+00
7.180906295776367188e+00 5.839110374450683594e+00 2.976377248764038086e+00 5.839110374450683594e+00 3.015742301940917969e+01 -5.066139698028564453e+00 2.976377248764038086e+00 -5.066139698028564453e+00 3.073177576065063477e+00
1.046998691558837891e+01 4.757450580596923828e+00 2.212226629257202148e+00 4.757450580596923828e+00 3.287588500976562500e+01 -7.181970119476318359e+00 2.212226629257202148e+00 -7.181970119476318359e+00 4.458762168884277344e+00
1.359961414337158203e+01 3.091596126556396484e+00 1.518242001533508301e+00 3.091596126556396484e+00 3.515992736816406250e+01 -8.716110229492187500e+00 1.518242001533508301e+00 -8.716110229492187500e+00 6.123950958251953125e+00
1.406625556945800781e+01 2.766783952713012695e+00 1.416118383407592773e+00 2.766783952713012695e+00 3.543544387817382812e+01 -8.896780967712402344e+00 1.416118383407592773e+00 -8.896780967712402344e+00 6.361147880554199219e+00
1.494502067565917969e+01 2.076137304306030273e+00 1.248905897140502930e+00 2.076137304306030273e+00 3.597501373291015625e+01 -9.200841903686523438e+00 1.248905897140502930e+00 -9.200841903686523438e+00 6.780082702636718750e+00
1.609600448608398438e+01 9.497067928314208984e-01 1.048559188842773438e+00 9.497067928314208984e-01 3.647086715698242188e+01 -9.490956306457519531e+00 1.048559188842773438e+00 -9.490956306457519531e+00 7.342375755310058594e+00
1.739714622497558594e+01 -9.157056212425231934e-01 9.207291603088378906e-01 -9.157056212425231934e-01 3.662324523925781250e+01 -9.548641204833984375e+00 9.207291603088378906e-01 -9.548641204833984375e+00 7.832556724548339844e+00
1.760744285583496094e+01 -1.633435130119323730e+00 9.376668930053710938e-01 -1.633435130119323730e+00 3.644633102416992188e+01 -9.442616462707519531e+00 9.376668930053710938e-01 -9.442616462707519531e+00 7.889637470245361328e+00
1.754683685302734375e+01 -2.639246463775634766e+00 1.060938358306884766e+00 -2.639246463775634766e+00 3.585755538940429688e+01 -9.171431541442871094e+00 1.060938358306884766e+00 -9.171431541442871094e+00 7.572840690612792969e+00
1.630403327941894531e+01 -4.007183551788330078e+00 1.375949621200561523e+00 -4.007183551788330078e+00 3.422884368896484375e+01 -8.359939575195312500e+00 1.375949621200561523e+00 -8.359939575195312500e+00 6.450690269470214844e+00
1.275962352752685547e+01 -5.305132865905761719e+00 1.989618301391601562e+00 -5.305132865905761719e+00 3.124800872802734375e+01 -6.815440654754638672e+00 1.989618301391601562e+00 -6.815440654754638672e+00 3.734997510910034180e+00
6.564523220062255859e+00 -5.866834163665771484e+00 2.420514106750488281e+00 -5.866834163665771484e+00 2.729493141174316406e+01 -4.590360164642333984e+00 2.420514106750488281e+00 -4.590360164642333984e+00 -1.507760047912597656e+00
4.734016418457031250e+00 -5.894178867340087891e+00 2.309542179107666016e+00 -5.894178867340087891e+00 2.621352386474609375e+01 -3.945154905319213867e+00 2.309542179107666016e+00 -3.945154905319213867e+00 -3.626034736633300781e+00
3.525236129760742188e+00 -5.789342403411865234e+00 1.948546171188354492e+00 -5.789342403411865234e+00 2.546454429626464844e+01 -3.391571760177612305e+00 1.948546171188354492e+00 -3.391571760177612305e+00 -6.049365997314453125e+00
3.399376392364501953e+00 -5.778273582458496094e+00 1.849691390991210938e+00 -5.778273582458496094e+00 2.536156272888183594e+01 -3.310722351074218750e+00 1.849691390991210938e+00 -3.310722351074218750e+00 -6.519428253173828125e+00
3.583939552307128906e+00 -5.535139083862304688e+00 1.220371246337890625e+00 -5.535139083862304688e+00 2.511122894287109375e+01 -3.072812795639038086e+00 1.220371246337890625e+00 -3.072812795639038086e+00 -8.477571487426757812e+00
7.221920490264892578e+00 -3.490164756774902344e+00 -1.101102709770202637e+00 -3.490164756774902344e+00 2.595165443420410156e+01 -3.530358076095581055e+00 -1.101102709770202637e+00 -3.530358076095581055e+00 -1.038757228851318359e+01
7.348512172698974609e+00 -3.036386728286743164e+00 -1.368000268936157227e+00 -3.036386728286743164e+00 2.599562644958496094e+01 -3.711082935333251953e+00 -1.368000268936157227e+00 -3.711082935333251953e+00 -1.024396324157714844e+01
4.425847053527832031e+00 6.692667603492736816e-01 -2.531019210815429688e+00 6.692667603492736816e-01 2.434008598327636719e+01 -5.092580795288085938e+00 -2.531019210815429688e+00 -5.092580795288085938e+00 -8.072201728820800781e+00
3.439065217971801758e+00 1.371924877166748047e+00 -2.691047668457031250e+00 1.371924877166748047e+00 2.368691635131835938e+01 -5.387238025665283203e+00 -2.691047668457031250e+00 -5.387238025665283203e+00 -7.637012481689453125e+00
-4.786104202270507812e+00 6.395683288574218750e+00 -2.349881887435913086e+00 6.395683288574218750e+00 1.334497070312500000e+01 -8.936100959777832031e+00 -2.349881887435913086e+00 -8.936100959777832031e+00 1.334352254867553711e+00
-4.886779785156250000e+00 6.475365161895751953e+00 -2.264777421951293945e+00 6.475365161895751953e+00 1.286238479614257812e+01 -9.103753089904785156e+00 -2.264777421951293945e+00 -9.103753089904785156e+00 1.953916311264038086e+00
-4.976632118225097656e+00 6.550164222717285156e+00 -2.190880537033081055e+00 6.550164222717285156e+00 1.235413837432861328e+01 -9.236258506774902344e+00 -2.190880537033081055e+00 -9.236258506774902344e+00 2.548256874084472656e+00
-4.103419780731201172e+00 7.896863460540771484e+00 -3.342726945877075195e+00 7.896863460540771484e+00 6.751010417938232422e+00 -8.501121520996093750e+00 -3.342726945877075195e+00 -8.501121520996093750e+00 5.837588787078857422e+00
-3.931223869323730469e+00 8.058769226074218750e+00 -3.582283258438110352e+00 8.058769226074218750e+00 6.374074935913085938e+00 -8.260087966918945312e+00 -3.582283258438110352e+00 -8.260087966918945312e+00 5.726435184478759766e+00
-7.227954268455505371e-01 9.498843193054199219e+00 -5.920433521270751953e+00 9.498843193054199219e+00 4.153877258300781250e+00 -5.627361297607421875e+00 -5.920433521270751953e+00 -5.627361297607421875e+00 5.275876045227050781e+00
4.428713619709014893e-01 9.687781333923339844e+00 -6.189120292663574219e+00 9.687781333923339844e+00 4.201253414154052734e+00 -5.016142845153808594e+00 -6.189120292663574219e+00 -5.016142845153808594e+00 6.015059471130371094e+00
3.090227603912353516e+00 9.150396347045898438e+00 -4.736427307128906250e+00 9.150396347045898438e+00 5.686682224273681641e+00 -3.416045904159545898e+00 -4.736427307128906250e+00 -3.416045904159545898e+00 1.267486763000488281e+01
3.404161691665649414e+00 9.046735763549804688e+00 -4.221375942230224609e+00 9.046735763549804688e+00 6.080081462860107422e+00 -3.143896341323852539e+00 -4.221375942230224609e+00 -3.143896341323852539e+00 1.416086578369140625e+01
4.351023674011230469e+00 8.945520401000976562e+00 -3.061247587203979492e+00 8.945520401000976562e+00 7.278862476348876953e+00 -2.635047674179077148e+00 -3.061247587203979492e+00 -2.635047674179077148e+00 1.770188903808593750e+01
7.600960731506347656e+00 9.425322532653808594e+00 3.625159561634063721e-01 9.425322532653808594e+00 1.169568443298339844e+01 -1.404735326766967773e+00 3.625159561634063721e-01 -1.404735326766967773e+00 2.783691596984863281e+01
7.948204994201660156e+00 9.527365684509277344e+00 6.157795786857604980e-01 9.527365684509277344e+00 1.215046977996826172e+01 -1.332580447196960449e+00 6.157795786857604980e-01 -1.332580447196960449e+00 2.868709945678710938e+01
8.990241050720214844e+00 9.821319580078125000e+00 1.280248880386352539e+00 9.821319580078125000e+00 1.354201316833496094e+01 -1.114704489707946777e+00 1.280248880386352539e+00 -1.114704489707946777e+00 3.094841003417968750e+01
1.020766067504882812e+01 1.023671722412109375e+01 1.888090968132019043e+00 1.023671722412109375e+01 1.538907241821289062e+01 -8.812943100929260254e-01 1.888090968132019043e+00 -8.812943100929260254e-01 3.344079589843750000e+01
1.133131504058837891e+01 1.062602233886718750e+01 2.126504421234130859e+00 1.062602233886718750e+01 1.770853042602539062e+01 -4.372721612453460693e-01 2.126504421234130859e+00 -4.372721612453460693e-01 3.553262329101562500e+01
1.141171264648437500e+01 1.063099765777587891e+01 2.085598230361938477e+00 1.063099765777587891e+01 1.802447891235351562e+01 -3.558595180511474609e-01 2.085598230361938477e+00 -3.558595180511474609e-01 3.567026138305664062e+01
1.146975040435791016e+01 1.064980697631835938e+01 2.023384809494018555e+00 1.064980697631835938e+01 1.836058998107910156e+01 -2.457637488842010498e-01 2.023384809494018555e+00 -2.457637488842010498e-01 3.580113983154296875e+01
1.140530872344970703e+01 1.057243156433105469e+01 1.724298715591430664e+00 1.057243156433105469e+01 1.926870346069335938e+01 1.330384761095046997e-01 1.724298715591430664e+00 1.330384761095046997e-01 3.595156097412109375e+01
9.966834068298339844e+00 9.986282348632812500e+00 5.636144280433654785e-01 9.986282348632812500e+00 2.095910072326660156e+01 1.552673697471618652e+00 5.636144280433654785e-01 1.552673697471618652e+00 3.465128707885742188e+01
9.659774780273437500e+00 9.847936630249023438e+00 3.621157705783843994e-01 9.847936630249023438e+00 2.120234870910644531e+01 1.804640889167785645e+00 3.621157705783843994e-01 1.804640889167785645e+00 3.432937240600585938e+01
9.338822364807128906e+00 9.719261169433593750e+00 1.482833027839660645e-01 9.719261169433593750e+00 2.144769859313964844e+01 2.041931390762329102e+00 1.482833027839660645e-01 2.041931390762329102e+00 3.397497558593750000e+01
8.620615005493164062e+00 9.439339637756347656e+00 -2.384997606277465820e-01 9.439339637756347656e+00 2.198241996765136719e+01 2.556833028793334961e+00 -2.384997606277465820e-01 2.556833028793334961e+00 3.312310791015625000e+01
7.847135066986083984e+00 9.168457031250000000e+00 -6.040305495262145996e-01 9.168457031250000000e+00 2.249005317687988281e+01 3.066238880157470703e+00 -6.040305495262145996e-01 3.066238880157470703e+00 3.213794326782226562e+01
6.125858783721923828e+00 8.651476860046386719e+00 -1.234834074974060059e+00 8.651476860046386719e+00 2.345889091491699219e+01 3.808878660202026367e+00 -1.234834074974060059e+00 3.808878660202026367e+00 2.978459739685058594e+01
5.260431289672851562e+00 8.441669464111328125e+00 -1.444492340087890625e+00 8.441669464111328125e+00 2.389118957519531250e+01 3.973194837570190430e+00 -1.444492340087890625e+00 3.973194837570190430e+00 2.844964790344238281e+01
2.823647260665893555e+00 7.847330093383789062e+00 -1.888188838958740234e+00 7.847330093383789062e+00 2.465134620666503906e+01 3.617776870727539062e+00 -1.888188838958740234e+00 3.617776870727539062e+00 2.432496070861816406e+01
7.051568627357482910e-01 7.270844936370849609e+00 -2.002798318862915039e+00 7.270844936370849609e+00 2.453348159790039062e+01 1.963636994361877441e+00 -2.002798318862915039e+00 1.963636994361877441e+00 2.079286384582519531e+01
7.759744767099618912e-03 7.005935192108154297e+00 -1.967268109321594238e+00 7.005935192108154297e+00 2.424628829956054688e+01 1.196944713592529297e+00 -1.967268109321594238e+00 1.196944713592529297e+00 1.989443778991699219e+01
-1.733673930168151855e+00 6.067055225372314453e+00 -1.764157533645629883e+00 6.067055225372314453e+00 2.310207748413085938e+01 -9.984567761421203613e-01 -1.764157533645629883e+00 -9.984567761421203613e-01 1.816881561279296875e+01
-6.222883701324462891e+00 3.148535966873168945e+00 -1.423935770988464355e+00 3.148535966873168945e+00 1.784437561035156250e+01 -4.394576549530029297e+00 -1.423935770988464355e+00 -4.394576549530029297e+00 1.556805896759033203e+01
-6.581750392913818359e+00 2.843496561050415039e+00 -1.464811325073242188e+00 2.843496561050415039e+00 1.728521347045898438e+01 -4.521039009094238281e+00 -1.464811325073242188e+00 -4.521039009094238281e+00 1.531074142456054688e+01
-7.322412967681884766e+00 2.230494499206542969e+00 -1.544286012649536133e+00 2.230494499206542969e+00 1.608931922912597656e+01 -4.712802410125732422e+00 -1.544286012649536133e+00 -4.712802410125732422e+00 1.466835784912109375e+01
-7.644341945648193359e+00 1.907816171646118164e+00 -1.596307873725891113e+00 1.907816171646118164e+00 1.553567790985107422e+01 -4.772566318511962891e+00 -1.596307873725891113e+00 -4.772566318511962891e+00 1.431683254241943359e+01
-8.508971214294433594e+00 8.866794109344482422e-01 -1.827919602394104004e+00 8.866794109344482422e-01 1.400719451904296875e+01 -4.782220363616943359e+00 -1.827919602394104004e+00 -4.782220363616943359e+00 1.314352989196777344e+01
-8.736956596374511719e+00 5.165913701057434082e-01 -1.921522617340087891e+00 5.165913701057434082e-01 1.356354236602783203e+01 -4.758073806762695312e+00 -1.921522617340087891e+00 -4.758073806762695312e+00 1.266444873809814453e+01
-9.443299293518066406e+00 -1.423235535621643066e+00 -2.508519649505615234e+00 -1.423235535621643066e+00 1.206658840179443359e+01 -4.509843826293945312e+00 -2.508519649505615234e+00 -4.509843826293945312e+00 1.017209625244140625e+01
-9.217745780944824219e+00 -4.601234436035156250e+00 -3.493683576583862305e+00 -4.601234436035156250e+00 1.223280715942382812e+01 -4.273741722106933594e+00 -3.493683576583862305e+00 -4.273741722106933594e+00 6.393725872039794922e+00
-9.089002609252929688e+00 -5.055343627929687500e+00 -3.632909774780273438e+00 -5.055343627929687500e+00 1.246825885772705078e+01 -4.274826526641845703e+00 -3.632909774780273438e+00 -4.274826526641845703e+00 5.866080284118652344e+00
-8.995811462402343750e+00 -5.515553474426269531e+00 -3.766213893890380859e+00 -5.515553474426269531e+00 1.271952533721923828e+01 -4.258652687072753906e+00 -3.766213893890380859e+00 -4.258652687072753906e+00 5.336732387542724609e+00
-8.661852836608886719e+00 -6.911483764648437500e+00 -4.127282619476318359e+00 -6.911483764648437500e+00 1.369560813903808594e+01 -4.310336589813232422e+00 -4.127282619476318359e+00 -4.310336589813232422e+00 3.853408336639404297e+00
-7.848008632659912109e+00 -1.033681869506835938e+01 -4.615762233734130859e+00 -1.033681869506835938e+01 1.775528907775878906e+01 -5.120878696441650391e+00 -4.615762233734130859e+00 -5.120878696441650391e+00 3.823288679122924805e-01
-7.787726879119873047e+00 -1.062648868560791016e+01 -4.607592582702636719e+00 -1.062648868560791016e+01 1.823773002624511719e+01 -5.253730773925781250e+00 -4.607592582702636719e+00 -5.253730773925781250e+00 1.263838261365890503e-01
-7.546022415161132812e+00 -1.157793998718261719e+01 -4.386553764343261719e+00 -1.157793998718261719e+01 2.026659202575683594e+01 -6.077347278594970703e+00 -4.386553764343261719e+00 -6.077347278594970703e+00 -8.421883583068847656e-01
-7.424002170562744141e+00 -1.173347854614257812e+01 -4.221537113189697266e+00 -1.173347854614257812e+01 2.098463058471679688e+01 -6.481197357177734375e+00 -4.221537113189697266e+00 -6.481197357177734375e+00 -1.116905331611633301e+00
-6.495438098907470703e+00 -1.052314949035644531e+01 -2.926223993301391602e+00 -1.052314949035644531e+01 2.272198867797851562e+01 -8.942771911621093750e+00 -2.926223993301391602e+00 -8.942771911621093750e+00 -1.593369483947753906e+00
-5.148699760437011719e+00 -8.557015419006347656e+00 -2.285053968429565430e+00 -8.557015419006347656e+00 2.252506256103515625e+01 -9.997952461242675781e+00 -2.285053968429565430e+00 -9.997952461242675781e+00 -1.021856665611267090e+00
-4.524640083312988281e+00 -7.793072700500488281e+00 -2.150627613067626953e+00 -7.793072700500488281e+00 2.235779762268066406e+01 -1.026378726959228516e+01 -2.150627613067626953e+00 -1.026378726959228516e+01 -6.762127280235290527e-01
-3.009324550628662109e+00 -6.177781581878662109e+00 -1.996676802635192871e+00 -6.177781581878662109e+00 2.202192878723144531e+01 -1.072664260864257812e+01 -1.996676802635192871e+00 -1.072664260864257812e+01 3.547976911067962646e-01
-2.609275579452514648e+00 -5.785221576690673828e+00 -1.978089928627014160e+00 -5.785221576690673828e+00 2.194414520263671875e+01 -1.080545043945312500e+01 -1.978089928627014160e+00 -1.080545043945312500e+01 6.627020835876464844e-01
-2.164252758026123047e+00 -5.389197826385498047e+00 -1.963191747665405273e+00 -5.389197826385498047e+00 2.189900588989257812e+01 -1.088545036315917969e+01 -1.963191747665405273e+00 -1.088545036315917969e+01 1.047048330307006836e+00
5.099123477935791016e+00 -5.706228613853454590e-01 -3.493686199188232422e+00 -5.706228613853454590e-01 2.306881904602050781e+01 -1.000551414489746094e+01 -3.493686199188232422e+00 -1.000551414489746094e+01 9.484066963195800781e+00
5.350110054016113281e+00 -4.064423739910125732e-01 -3.674293279647827148e+00 -4.064423739910125732e-01 2.339520072937011719e+01 -9.857417106628417969e+00 -3.674293279647827148e+00 -9.857417106628417969e+00 9.945264816284179688e+00
6.660433769226074219e+00 1.191721796989440918e+00 -6.194678783416748047e+00 1.191721796989440918e+00 2.889216423034667969e+01 -7.728847026824951172e+00 -6.194678783416748047e+00 -7.728847026824951172e+00 1.362552356719970703e+01