6.107840538024902344e+00 2.385909110307693481e-01 -3.950932323932647705e-01 2.385909110307693481e-01 4.599863052368164062e+01 1.238684803247451782e-01 -3.950932323932647705e-01 1.238684803247451782e-01 7.005899047851562500e+01
1.120975112915039062e+01 3.133482694625854492e+00 -5.221779346466064453e+00 3.133482694625854492e+00 4.861457824707031250e+01 1.593827724456787109e+00 -5.221779346466064453e+00 1.593827724456787109e+00 9.689367675781250000e+01
1.403108119964599609e+01 3.689398765563964844e+00 -6.027577877044677734e+00 3.689398765563964844e+00 4.964403915405273438e+01 1.832916378974914551e+00 -6.027577877044677734e+00 1.832916378974914551e+00 1.009810104370117188e+02
2.258567047119140625e+01 5.253343105316162109e+00 -7.685427188873291016e+00 5.253343105316162109e+00 5.226604080200195312e+01 2.103847026824951172e+00 -7.685427188873291016e+00 2.103847026824951172e+00 1.078328399658203125e+02
3.385279083251953125e+01 7.231228351593017578e+00 -9.024144172668457031e+00 7.231228351593017578e+00 5.384337615966796875e+01 2.155583381652832031e+00 -9.024144172668457031e+00 2.155583381652832031e+00 1.057532958984375000e+02
4.410329055786132812e+01 7.532555580139160156e+00 -9.772534370422363281e+00 7.532555580139160156e+00 3.421027755737304688e+01 1.689198970794677734e+00 -9.772534370422363281e+00 1.689198970794677734e+00 4.217464065551757812e+01
3.986457061767578125e+01 6.782796859741210938e+00 -8.971595764160156250e+00 6.782796859741210938e+00 2.445108413696289062e+01 3.772727727890014648e+00 -8.971595764160156250e+00 3.772727727890014648e+00 2.455720710754394531e+01
3.615139770507812500e+01 6.288604736328125000e+00 -8.124707221984863281e+00 6.288604736328125000e+00 1.634152221679687500e+01 6.624213695526123047e+00 -8.124707221984863281e+00 6.624213695526123047e+00 1.350403499603271484e+01
3.540951538085937500e+01 6.115941524505615234e+00 -7.899538516998291016e+00 6.115941524505615234e+00 1.450373554229736328e+01 7.435322284698486328e+00 -7.899538516998291016e+00 7.435322284698486328e+00 1.152951335906982422e+01
3.449517822265625000e+01 5.645837306976318359e+00 -7.508516311645507812e+00 5.645837306976318359e+00 1.046828556060791016e+01 9.577089309692382812e+00 -7.508516311645507812e+00 9.577089309692382812e+00 8.237096786499023438e+00
3.439081192016601562e+01 5.413592338562011719e+00 -7.425459861755371094e+00 5.413592338562011719e+00 9.567719459533691406e+00 1.015162277221679688e+01 -7.425459861755371094e+00 1.015162277221679688e+01 7.816538333892822266e+00
3.430874252319335938e+01 5.298190593719482422e+00 -7.398462295532226562e+00 5.298190593719482422e+00 9.208981513977050781e+00 1.041368293762207031e+01 -7.398462295532226562e+00 1.041368293762207031e+01 7.726991176605224609e+00
3.481230545043945312e+01 4.667189121246337891e+00 -7.148908138275146484e+00 4.667189121246337891e+00 8.005620956420898438e+00 1.129042625427246094e+01 -7.148908138275146484e+00 1.129042625427246094e+01 8.728162765502929688e+00
3.648450469970703125e+01 3.477682113647460938e+00 -6.332176685333251953e+00 3.477682113647460938e+00 9.470541954040527344e+00 1.111718463897705078e+01 -6.332176685333251953e+00 1.111718463897705078e+01 1.318022918701171875e+01
3.738410949707031250e+01 2.672896862030029297e+00 -5.481087684631347656e+00 2.672896862030029297e+00 1.137302398681640625e+01 1.062133598327636719e+01 -5.481087684631347656e+00 1.062133598327636719e+01 1.620248031616210938e+01
3.904407501220703125e+01 1.672258526086807251e-01 -2.300063848495483398e+00 1.672258526086807251e-01 1.852390289306640625e+01 9.153710365295410156e+00 -2.300063848495483398e+00 9.153710365295410156e+00 2.390409278869628906e+01
3.417631530761718750e+01 -1.939013838768005371e+00 7.135380804538726807e-02 -1.939013838768005371e+00 3.265699005126953125e+01 9.074885368347167969e+00 7.135380804538726807e-02 9.074885368347167969e+00 2.892721748352050781e+01
3.333821105957031250e+01 -1.724672794342041016e+00 -1.226071119308471680e-01 -1.724672794342041016e+00 3.353027725219726562e+01 9.268276214599609375e+00 -1.226071119308471680e-01 9.268276214599609375e+00 2.917255020141601562e+01
3.188323020935058594e+01 -5.866809487342834473e-01 -8.867112398147583008e-01 -5.866809487342834473e-01 3.684667968750000000e+01 1.055897617340087891e+01 -8.867112398147583008e-01 1.055897617340087891e+01 3.184722709655761719e+01
3.392280960083007812e+01 4.533183574676513672e-01 -1.113667964935302734e+00 4.533183574676513672e-01 4.024016571044921875e+01 1.201200962066650391e+01 -1.113667964935302734e+00 1.201200962066650391e+01 3.629269409179687500e+01
3.518837356567382812e+01 8.344964981079101562e-01 -1.044242858886718750e+00 8.344964981079101562e-01 4.147114944458007812e+01 1.251449108123779297e+01 -1.044242858886718750e+00 1.251449108123779297e+01 3.811703491210937500e+01
3.679055786132812500e+01 1.257817149162292480e+00 -9.326983690261840820e-01 1.257817149162292480e+00 4.286931228637695312e+01 1.300574111938476562e+01 -9.326983690261840820e-01 1.300574111938476562e+01 4.021975708007812500e+01
3.956989288330078125e+01 1.944148182868957520e+00 -5.482829213142395020e-01 1.944148182868957520e+00 4.488309097290039062e+01 1.359146308898925781e+01 -5.482829213142395020e-01 1.359146308898925781e+01 4.350371551513671875e+01
4.156206893920898438e+01 2.498933076858520508e+00 -2.078497707843780518e-01 2.498933076858520508e+00 4.616499710083007812e+01 1.384136581420898438e+01 -2.078497707843780518e-01 1.384136581420898438e+01 4.573253250122070312e+01
4.261601257324218750e+01 2.785964488983154297e+00 -3.275067359209060669e-02 2.785964488983154297e+00 4.681819915771484375e+01 1.391851615905761719e+01 -3.275067359209060669e-02 1.391851615905761719e+01 4.689694976806640625e+01
4.359558868408203125e+01 3.080878973007202148e+00 1.752741336822509766e-01 3.080878973007202148e+00 4.733435058593750000e+01 1.395808315277099609e+01 1.752741336822509766e-01 1.395808315277099609e+01 4.800349044799804688e+01
4.462883377075195312e+01 3.402326822280883789e+00 4.001439511775970459e-01 3.402326822280883789e+00 4.784037399291992188e+01 1.395317935943603516e+01 4.001439511775970459e-01 1.395317935943603516e+01 4.912069702148437500e+01
4.567663192749023438e+01 3.691414833068847656e+00 6.549098491668701172e-01 3.691414833068847656e+00 4.828673171997070312e+01 1.389005470275878906e+01 6.549098491668701172e-01 1.389005470275878906e+01 5.022547912597656250e+01
5.365722656250000000e+01 6.962570667266845703e+00 2.770429134368896484e+00 6.962570667266845703e+00 4.934883117675781250e+01 1.012587547302246094e+01 2.770429134368896484e+00 1.012587547302246094e+01 5.793109130859375000e+01
5.577843856811523438e+01 8.547858238220214844e+00 3.413828372955322266e+00 8.547858238220214844e+00 4.644918823242187500e+01 4.612718582153320312e+00 3.413828372955322266e+00 4.612718582153320312e+00 5.903726959228515625e+01
5.622078323364257812e+01 8.855606079101562500e+00 3.567319154739379883e+00 8.855606079101562500e+00 4.366304779052734375e+01 1.776719987392425537e-01 3.567319154739379883e+00 1.776719987392425537e-01 5.813185501098632812e+01
5.633701705932617188e+01 8.811000823974609375e+00 3.659738779067993164e+00 8.811000823974609375e+00 4.259390640258789062e+01 -1.545010566711425781e+00 3.659738779067993164e+00 -1.545010566711425781e+00 5.753725814819335938e+01
5.644184494018554688e+01 9.310320615768432617e-01 6.725296974182128906e+00 9.310320615768432617e-01 3.540596389770507812e+01 -1.019456577301025391e+01 6.725296974182128906e+00 -1.019456577301025391e+01 3.164948844909667969e+01
4.996717834472656250e+01 -3.277065992355346680e+00 7.355245590209960938e+00 -3.277065992355346680e+00 2.900110435485839844e+01 -8.640382766723632812e+00 7.355245590209960938e+00 -8.640382766723632812e+00 1.422124767303466797e+01
4.941071701049804688e+01 -3.457693099975585938e+00 7.387466430664062500e+00 -3.457693099975585938e+00 2.851015472412109375e+01 -8.543569564819335938e+00 7.387466430664062500e+00 -8.543569564819335938e+00 1.330593872070312500e+01
4.506481552124023438e+01 -4.613628864288330078e+00 7.774953842163085938e+00 -4.613628864288330078e+00 2.509965324401855469e+01 -8.012455940246582031e+00 7.774953842163085938e+00 -8.012455940246582031e+00 8.355527877807617188e+00
4.370859146118164062e+01 -4.985702514648437500e+00 7.934452533721923828e+00 -4.985702514648437500e+00 2.431447982788085938e+01 -7.864286899566650391e+00 7.934452533721923828e+00 -7.864286899566650391e+00 7.506155967712402344e+00
4.213873291015625000e+01 -5.385144710540771484e+00 8.099464416503906250e+00 -5.385144710540771484e+00 2.362681961059570312e+01 -7.747662544250488281e+00 8.099464416503906250e+00 -7.747662544250488281e+00 6.773637771606445312e+00
3.881343078613281250e+01 -6.249393463134765625e+00 8.443388938903808594e+00 -6.249393463134765625e+00 2.245830345153808594e+01 -7.363079071044921875e+00 8.443388938903808594e+00 -7.363079071044921875e+00 5.926693439483642578e+00
3.573090362548828125e+01 -6.936781406402587891e+00 8.678571701049804688e+00 -6.936781406402587891e+00 2.171294593811035156e+01 -6.944675445556640625e+00 8.678571701049804688e+00 -6.944675445556640625e+00 5.635781288146972656e+00
3.459028625488281250e+01 -7.161907672882080078e+00 8.752336502075195312e+00 -7.161907672882080078e+00 2.142355346679687500e+01 -6.792937755584716797e+00 8.752336502075195312e+00 -6.792937755584716797e+00 5.592754364013671875e+00
3.096922492980957031e+01 -7.822237968444824219e+00 8.946073532104492188e+00 -7.822237968444824219e+00 2.080927085876464844e+01 -6.242309570312500000e+00 8.946073532104492188e+00 -6.242309570312500000e+00 5.755730628967285156e+00
2.441374206542968750e+01 -8.622920989990234375e+00 9.260800361633300781e+00 -8.622920989990234375e+00 2.007257080078125000e+01 -4.984417915344238281e+00 9.260800361633300781e+00 -4.984417915344238281e+00 7.010203361511230469e+00
1.874073982238769531e+01 -8.899506568908691406e+00 9.442918777465820312e+00 -8.899506568908691406e+00 1.954517173767089844e+01 -3.738220453262329102e+00 9.442918777465820312e+00 -3.738220453262329102e+00 8.713044166564941406e+00
1.203694248199462891e+01 -8.779094696044921875e+00 9.582113265991210938e+00 -8.779094696044921875e+00 1.935182380676269531e+01 -1.855934023857116699e+00 9.582113265991210938e+00 -1.855934023857116699e+00 1.176031017303466797e+01
1.082999706268310547e+01 -8.724250793457031250e+00 9.602588653564453125e+00 -8.724250793457031250e+00 1.940433120727539062e+01 -1.472801327705383301e+00 9.602588653564453125e+00 -1.472801327705383301e+00 1.249462985992431641e+01
8.527316093444824219e+00 -8.516206741333007812e+00 9.649191856384277344e+00 -8.516206741333007812e+00 1.961764335632324219e+01 -6.140764951705932617e-01 9.649191856384277344e+00 -6.140764951705932617e-01 1.412204170227050781e+01
5.549404621124267578e+00 -8.109605789184570312e+00 9.662917137145996094e+00 -8.109605789184570312e+00 1.994337654113769531e+01 6.776486039161682129e-01 9.662917137145996094e+00 6.776486039161682129e-01 1.677974128723144531e+01
3.309171438217163086e+00 -7.705645561218261719e+00 9.622639656066894531e+00 -7.705645561218261719e+00 2.068179893493652344e+01 1.961483955383300781e+00 9.622639656066894531e+00 1.961483955383300781e+00 1.972468185424804688e+01
2.695208549499511719e+00 -7.558639526367187500e+00 9.592366218566894531e+00 -7.558639526367187500e+00 2.090520286560058594e+01 2.418440818786621094e+00 9.592366218566894531e+00 2.418440818786621094e+00 2.071246719360351562e+01
1.101862907409667969e+00 -6.771850585937500000e+00 9.427694320678710938e+00 -6.771850585937500000e+00 2.291658973693847656e+01 4.515027523040771484e+00 9.427694320678710938e+00 4.515027523040771484e+00 2.594384765625000000e+01
1.160645723342895508e+00 -6.456597805023193359e+00 9.364527702331542969e+00 -6.456597805023193359e+00 2.398679924011230469e+01 5.299498558044433594e+00 9.364527702331542969e+00 5.299498558044433594e+00 2.811756134033203125e+01
1.911616444587707520e+00 -5.802185535430908203e+00 9.358963966369628906e+00 -5.802185535430908203e+00 2.616656684875488281e+01 6.645562171936035156e+00 9.358963966369628906e+00 6.645562171936035156e+00 3.220917129516601562e+01
9.246719360351562500e+00 -3.435452461242675781e+00 1.013481330871582031e+01 -3.435452461242675781e+00 3.283228683471679688e+01 7.535709857940673828e+00 1.013481330871582031e+01 7.535709857940673828e+00 4.225583267211914062e+01
1.248531532287597656e+01 -2.793349266052246094e+00 1.041522121429443359e+01 -2.793349266052246094e+00 3.450634384155273438e+01 6.577305316925048828e+00 1.041522121429443359e+01 6.577305316925048828e+00 4.506214141845703125e+01
1.566885566711425781e+01 -2.468658685684204102e+00 1.045469093322753906e+01 -2.468658685684204102e+00 3.557168579101562500e+01 5.079501152038574219e+00 1.045469093322753906e+01 5.079501152038574219e+00 4.751355743408203125e+01
2.107430648803710938e+01 -3.249529838562011719e+00 9.662634849548339844e+00 -3.249529838562011719e+00 3.684734725952148438e+01 1.839952349662780762e+00 9.662634849548339844e+00 1.839952349662780762e+00 5.157377243041992188e+01
2.820635032653808594e+01 -6.245832443237304688e+00 6.945067882537841797e+00 -6.245832443237304688e+00 3.864443206787109375e+01 -2.179381847381591797e+00 6.945067882537841797e+00 -2.179381847381591797e+00 5.524008560180664062e+01
3.313399505615234375e+01 -7.906155109405517578e+00 4.625269412994384766e+00 -7.906155109405517578e+00 4.056049728393554688e+01 -3.934213876724243164e+00 4.625269412994384766e+00 -3.934213876724243164e+00 5.634669876098632812e+01
4.008374404907226562e+01 -9.046596527099609375e+00 1.411608695983886719e+00 -9.046596527099609375e+00 4.355926895141601562e+01 -5.437074184417724609e+00 1.411608695983886719e+00 -5.437074184417724609e+00 5.718101119995117188e+01
4.700793838500976562e+01 -8.631456375122070312e+00 -1.762462496757507324e+00 -8.631456375122070312e+00 4.647101593017578125e+01 -6.315857887268066406e+00 -1.762462496757507324e+00 -6.315857887268066406e+00 5.762159347534179688e+01
4.798210906982421875e+01 -8.401816368103027344e+00 -2.231974363327026367e+00 -8.401816368103027344e+00 4.681655120849609375e+01 -6.447936534881591797e+00 -2.231974363327026367e+00 -6.447936534881591797e+00 5.759469223022460938e+01
4.983784484863281250e+01 -7.743165493011474609e+00 -3.085244178771972656e+00 -7.743165493011474609e+00 4.750753021240234375e+01 -6.662238597869873047e+00 -3.085244178771972656e+00 -6.662238597869873047e+00 5.767806625366210938e+01
5.207714462280273438e+01 -6.446399688720703125e+00 -4.174786567687988281e+00 -6.446399688720703125e+00 4.817605972290039062e+01 -6.859104633331298828e+00 -4.174786567687988281e+00 -6.859104633331298828e+00 5.752867126464843750e+01
5.408291244506835938e+01 -3.583181858062744141e+00 -5.224209785461425781e+00 -3.583181858062744141e+00 4.819963836669921875e+01 -7.194216728210449219e+00 -5.224209785461425781e+00 -7.194216728210449219e+00 5.667213439941406250e+01
5.428133010864257812e+01 -2.170050382614135742e+00 -5.336457729339599609e+00 -2.170050382614135742e+00 4.785979461669921875e+01 -7.265509605407714844e+00 -5.336457729339599609e+00 -7.265509605407714844e+00 5.608348846435546875e+01
5.402890396118164062e+01 5.669919401407241821e-02 -5.236068248748779297e+00 5.669919401407241821e-02 4.698267364501953125e+01 -7.331593990325927734e+00 -5.236068248748779297e+00 -7.331593990325927734e+00 5.498366928100585938e+01
5.249992752075195312e+01 4.003343582153320312e+00 -4.257053375244140625e+00 4.003343582153320312e+00 4.457252120971679688e+01 -7.052665710449218750e+00 -4.257053375244140625e+00 -7.052665710449218750e+00 5.271506500244140625e+01
4.901152038574218750e+01 9.631214141845703125e+00 -1.499902486801147461e+00 9.631214141845703125e+00 3.956142807006835938e+01 -5.206641197204589844e+00 -1.499902486801147461e+00 -5.206641197204589844e+00 4.943991088867187500e+01
4.437818908691406250e+01 1.571590614318847656e+01 3.975532293319702148e+00 1.571590614318847656e+01 3.187807083129882812e+01 7.230711579322814941e-01 3.975532293319702148e+00 7.230711579322814941e-01 4.643393707275390625e+01
4.210253906250000000e+01 1.670750999450683594e+01 5.982351303100585938e+00 1.670750999450683594e+01 2.866820144653320312e+01 3.355405330657958984e+00 5.982351303100585938e+00 3.355405330657958984e+00 4.590427017211914062e+01
3.829222106933593750e+01 1.646200942993164062e+01 7.667356014251708984e+00 1.646200942993164062e+01 2.418511962890625000e+01 6.063961029052734375e+00 7.667356014251708984e+00 6.063961029052734375e+00 4.544606018066406250e+01
3.734566879272460938e+01 1.624792861938476562e+01 7.842256546020507812e+00 1.624792861938476562e+01 2.320306777954101562e+01 6.488767623901367188e+00 7.842256546020507812e+00 6.488767623901367188e+00 4.532993698120117188e+01
3.242273712158203125e+01 1.448376274108886719e+01 8.049240112304687500e+00 1.448376274108886719e+01 1.820827293395996094e+01 8.084369659423828125e+00 8.049240112304687500e+00 8.084369659423828125e+00 4.472595214843750000e+01
1.874144172668457031e+01 8.817822456359863281e+00 4.073822975158691406e+00 8.817822456359863281e+00 6.921276569366455078e+00 1.021992397308349609e+01 4.073822975158691406e+00 1.021992397308349609e+01 3.948849868774414062e+01
1.764709472656250000e+01 8.259183883666992188e+00 3.410238027572631836e+00 8.259183883666992188e+00 6.385821342468261719e+00 1.052614021301269531e+01 3.410238027572631836e+00 1.052614021301269531e+01 3.819314193725585938e+01
1.527925491333007812e+01 4.569549083709716797e+00 9.490187168121337891e-01 4.569549083709716797e+00 7.614251613616943359e+00 1.215001296997070312e+01 9.490187168121337891e-01 1.215001296997070312e+01 2.808693885803222656e+01
1.552900981903076172e+01 3.851490974426269531e+00 8.409310579299926758e-01 3.851490974426269531e+00 8.449041366577148438e+00 1.226314830780029297e+01 8.409310579299926758e-01 1.226314830780029297e+01 2.625604438781738281e+01
2.983940124511718750e+01 -6.717961311340332031e+00 1.153371810913085938e+00 -6.717961311340332031e+00 1.789854431152343750e+01 8.568839073181152344e+00 1.153371810913085938e+00 8.568839073181152344e+00 1.613828468322753906e+01
3.097116279602050781e+01 -7.219336032867431641e+00 1.093016743659973145e+00 -7.219336032867431641e+00 1.839997673034667969e+01 8.198867797851562500e+00 1.093016743659973145e+00 8.198867797851562500e+00 1.618109703063964844e+01
3.210490417480468750e+01 -7.732225418090820312e+00 1.001164436340332031e+00 -7.732225418090820312e+00 1.888498878479003906e+01 7.854913711547851562e+00 1.001164436340332031e+00 7.854913711547851562e+00 1.629029464721679688e+01
4.548448944091796875e+01 -1.194868087768554688e+01 -4.581043720245361328e-01 -1.194868087768554688e+01 2.540598106384277344e+01 3.819881200790405273e+00 -4.581043720245361328e-01 3.819881200790405273e+00 1.836396408081054688e+01
4.629438018798828125e+01 -1.201457977294921875e+01 -5.651418566703796387e-01 -1.201457977294921875e+01 2.584115409851074219e+01 3.565365314483642578e+00 -5.651418566703796387e-01 3.565365314483642578e+00 1.846958732604980469e+01
5.285079956054687500e+01 -9.706427574157714844e+00 -7.790560126304626465e-01 -9.706427574157714844e+00 2.999831962585449219e+01 2.165617704391479492e+00 -7.790560126304626465e-01 2.165617704391479492e+00 1.822808456420898438e+01
5.415272140502929688e+01 -8.201970100402832031e+00 -2.397190779447555542e-01 -8.201970100402832031e+00 3.090870285034179688e+01 2.330229043960571289e+00 -2.397190779447555542e-01 2.330229043960571289e+00 1.763689804077148438e+01
5.800506591796875000e+01 -3.561649322509765625e+00 3.642856836318969727e+00 -3.561649322509765625e+00 3.285796737670898438e+01 4.003013134002685547e+00 3.642856836318969727e+00 4.003013134002685547e+00 1.590730857849121094e+01
5.861351013183593750e+01 -2.911536216735839844e+00 4.429820060729980469e+00 -2.911536216735839844e+00 3.309113311767578125e+01 4.165850162506103516e+00 4.429820060729980469e+00 4.165850162506103516e+00 1.591893959045410156e+01
5.954715728759765625e+01 -1.691091418266296387e+00 5.996946811676025391e+00 -1.691091418266296387e+00 3.367187500000000000e+01 4.277629375457763672e+00 5.996946811676025391e+00 4.277629375457763672e+00 1.624555778503417969e+01
5.824749755859375000e+01 1.290831685066223145e+00 8.857625007629394531e+00 1.290831685066223145e+00 3.664039993286132812e+01 2.736627578735351562e+00 8.857625007629394531e+00 2.736627578735351562e+00 1.970046424865722656e+01
5.781933212280273438e+01 1.502967357635498047e+00 8.948021888732910156e+00 1.502967357635498047e+00 3.708325195312500000e+01 2.531423807144165039e+00 8.948021888732910156e+00 2.531423807144165039e+00 2.021385574340820312e+01
5.615088272094726562e+01 2.011289358139038086e+00 9.025586128234863281e+00 2.011289358139038086e+00 3.841755676269531250e+01 1.791526913642883301e+00 9.025586128234863281e+00 1.791526913642883301e+00 2.198058319091796875e+01
5.313129043579101562e+01 2.377181291580200195e+00 8.619795799255371094e+00 2.377181291580200195e+00 4.076160812377929688e+01 8.801967501640319824e-01 8.619795799255371094e+00 8.801967501640319824e-01 2.484355354309082031e+01
4.796030426025390625e+01 2.002412557601928711e+00 6.805043697357177734e+00 2.002412557601928711e+00 4.470203399658203125e+01 -2.312943339347839355e-01 6.805043697357177734e+00 -2.312943339347839355e-01 2.959590911865234375e+01
4.700687789916992188e+01 1.820451617240905762e+00 6.392711639404296875e+00 1.820451617240905762e+00 4.533089828491210938e+01 -3.621506989002227783e-01 6.392711639404296875e+00 -3.621506989002227783e-01 3.038697242736816406e+01
4.611401748657226562e+01 1.657239317893981934e+00 5.956229686737060547e+00 1.657239317893981934e+00 4.601485061645507812e+01 -4.448930025100708008e-01 5.956229686737060547e+00 -4.448930025100708008e-01 3.120238494873046875e+01
4.341081619262695312e+01 9.386137723922729492e-01 4.563456058502197266e+00 9.386137723922729492e-01 4.802474975585937500e+01 -5.375406146049499512e-01 4.563456058502197266e+00 -5.375406146049499512e-01 3.358172607421875000e+01
3.698307800292968750e+01 -1.497381448745727539e+00 1.320906162261962891e+00 -1.497381448745727539e+00 5.156903076171875000e+01 1.861441433429718018e-01 1.320906162261962891e+00 1.861441433429718018e-01 3.795469284057617188e+01
3.612036514282226562e+01 -1.949039220809936523e+00 9.162045121192932129e-01 -1.949039220809936523e+00 5.189057159423828125e+01 3.872216641902923584e-01 9.162045121192932129e-01 3.872216641902923584e-01 3.840419006347656250e+01
3.527853775024414062e+01 -2.402690172195434570e+00 5.237343311309814453e-01 -2.402690172195434570e+00 5.211651992797851562e+01 6.341561675071716309e-01 5.237343311309814453e-01 6.341561675071716309e-01 3.881755065917968750e+01
3.358665847778320312e+01 -3.357573032379150391e+00 -1.274405121803283691e-01 -3.357573032379150391e+00 5.236529541015625000e+01 1.181895136833190918e+00 -1.274405121803283691e-01 1.181895136833190918e+00 3.942111587524414062e+01
3.207120895385742188e+01 -4.376682281494140625e+00 -6.495913267135620117e-01 -4.376682281494140625e+00 5.234214019775390625e+01 1.813300967216491699e+00 -6.495913267135620117e-01 1.813300967216491699e+00 3.988139343261718750e+01
2.928270149230957031e+01 -6.536814689636230469e+00 -1.234776258468627930e+00 -6.536814689636230469e+00 5.137850570678710938e+01 3.182339429855346680e+00 -1.234776258468627930e+00 3.182339429855346680e+00 4.013845825195312500e+01
2.823599815368652344e+01 -7.635731697082519531e+00 -1.291182994842529297e+00 -7.635731697082519531e+00 5.052110290527343750e+01 3.859672784805297852e+00 -1.291182994842529297e+00 3.859672784805297852e+00 4.004533386230468750e+01
2.624199676513671875e+01 -1.109221553802490234e+01 -7.507737874984741211e-01 -1.109221553802490234e+01 4.682022857666015625e+01 5.667305946350097656e+00 -7.507737874984741211e-01 5.667305946350097656e+00 3.921608734130859375e+01
2.661789321899414062e+01 -1.439236068725585938e+01 4.544198215007781982e-01 -1.439236068725585938e+01 4.278032684326171875e+01 6.636327743530273438e+00 4.544198215007781982e-01 6.636327743530273438e+00 3.822235488891601562e+01
2.738243865966796875e+01 -1.539510345458984375e+01 8.600235581398010254e-01 -1.539510345458984375e+01 4.167458724975585938e+01 6.740768909454345703e+00 8.600235581398010254e-01 6.740768909454345703e+00 3.797100067138671875e+01
3.044180870056152344e+01 -1.767114067077636719e+01 1.910621404647827148e+00 -1.767114067077636719e+01 3.978195190429687500e+01 6.341261863708496094e+00 1.910621404647827148e+00 6.341261863708496094e+00 3.760218811035156250e+01
3.936207199096679688e+01 -2.049258613586425781e+01 3.720088243484497070e+00 -2.049258613586425781e+01 3.975321197509765625e+01 3.120112180709838867e+00 3.720088243484497070e+00 3.120112180709838867e+00 3.736266708374023438e+01
4.009014129638671875e+01 -2.051031303405761719e+01 3.857298612594604492e+00 -2.051031303405761719e+01 3.994773101806640625e+01 2.769688844680786133e+00 3.857298612594604492e+00 2.769688844680786133e+00 3.738052368164062500e+01
4.139850234985351562e+01 -2.039098548889160156e+01 4.132420063018798828e+00 -2.039098548889160156e+01 4.026421356201171875e+01 2.055394649505615234e+00 4.132420063018798828e+00 2.055394649505615234e+00 3.740464782714843750e+01
4.194377899169921875e+01 -2.029777717590332031e+01 4.271903514862060547e+00 -2.029777717590332031e+01 4.041451263427734375e+01 1.684443473815917969e+00 4.271903514862060547e+00 1.684443473815917969e+00 3.739101409912109375e+01
4.299812316894531250e+01 -1.967595100402832031e+01 4.622354984283447266e+00 -1.967595100402832031e+01 4.062240600585937500e+01 7.898874878883361816e-01 4.622354984283447266e+00 7.898874878883361816e-01 3.723242568969726562e+01
4.312615966796875000e+01 -1.933559989929199219e+01 4.739054203033447266e+00 -1.933559989929199219e+01 4.061788177490234375e+01 5.125206708908081055e-01 4.739054203033447266e+00 5.125206708908081055e-01 3.712639617919921875e+01
4.280461120605468750e+01 -1.714564704895019531e+01 5.217607975006103516e+00 -1.714564704895019531e+01 4.000487518310546875e+01 -3.466324508190155029e-01 5.217607975006103516e+00 -3.466324508190155029e-01 3.656085205078125000e+01
3.976988601684570312e+01 -1.255739021301269531e+01 5.524819374084472656e+00 -1.255739021301269531e+01 3.704700469970703125e+01 9.670154005289077759e-02 5.524819374084472656e+00 9.670154005289077759e-02 3.519440460205078125e+01
3.919045639038085938e+01 -1.183141136169433594e+01 5.553615570068359375e+00 -1.183141136169433594e+01 3.643021392822265625e+01 3.250284194946289062e-01 5.553615570068359375e+00 3.250284194946289062e-01 3.497982406616210938e+01
3.859276580810546875e+01 -1.113413047790527344e+01 5.553407669067382812e+00 -1.113413047790527344e+01 3.576910400390625000e+01 6.062513589859008789e-01 5.553407669067382812e+00 6.062513589859008789e-01 3.471495437622070312e+01
3.696426773071289062e+01 -9.061367034912109375e+00 5.669505596160888672e+00 -9.061367034912109375e+00 3.379551315307617188e+01 1.628347754478454590e+00 5.669505596160888672e+00 1.628347754478454590e+00 3.410080718994140625e+01
3.314941024780273438e+01 -3.682291507720947266e+00 6.575420379638671875e+00 -3.682291507720947266e+00 2.712055778503417969e+01 5.688106536865234375e+00 6.575420379638671875e+00 5.688106536865234375e+00 3.258074569702148438e+01
3.284349441528320312e+01 -3.231212139129638672e+00 6.761229038238525391e+00 -3.231212139129638672e+00 2.649610137939453125e+01 6.107474327087402344e+00 6.761229038238525391e+00 6.107474327087402344e+00 3.248841857910156250e+01
3.173873519897460938e+01 -1.217813730239868164e+00 7.985569000244140625e+00 -1.217813730239868164e+00 2.384942054748535156e+01 8.131363868713378906e+00 7.985569000244140625e+00 8.131363868713378906e+00 3.220924758911132812e+01
3.144494819641113281e+01 -5.944268703460693359e-01 8.575977325439453125e+00 -5.944268703460693359e-01 2.309425735473632812e+01 8.801506042480468750e+00 8.575977325439453125e+00 8.801506042480468750e+00 3.219514846801757812e+01
2.854423713684082031e+01 1.367501974105834961e+00 1.177785587310791016e+01 1.367501974105834961e+00 2.187804794311523438e+01 1.069029903411865234e+01 1.177785587310791016e+01 1.069029903411865234e+01 3.143124580383300781e+01
2.553880119323730469e+01 1.490340232849121094e+00 1.274553203582763672e+01 1.490340232849121094e+00 2.253061485290527344e+01 1.047443008422851562e+01 1.274553203582763672e+01 1.047443008422851562e+01 2.990033340454101562e+01
2.439547348022460938e+01 1.472946643829345703e+00 1.291121387481689453e+01 1.472946643829345703e+00 2.283846473693847656e+01 1.025638389587402344e+01 1.291121387481689453e+01 1.025638389587402344e+01 2.920057296752929688e+01
2.199226760864257812e+01 1.227085947990417480e+00 1.291289234161376953e+01 1.227085947990417480e+00 2.353821182250976562e+01 9.663298606872558594e+00 1.291289234161376953e+01 9.663298606872558594e+00 2.768478584289550781e+01
2.144273376464843750e+01 1.155139684677124023e+00 1.285899448394775391e+01 1.155139684677124023e+00 2.373187255859375000e+01 9.500975608825683594e+00 1.285899448394775391e+01 9.500975608825683594e+00 2.723454475402832031e+01
2.088116264343261719e+01 1.065589785575866699e+00 1.279312896728515625e+01 1.065589785575866699e+00 2.394235229492187500e+01 9.328441619873046875e+00 1.279312896728515625e+01 9.328441619873046875e+00 2.682366561889648438e+01
1.279041099548339844e+01 -2.865189909934997559e-01 7.103561878204345703e+00 -2.865189909934997559e-01 3.037263870239257812e+01 7.274272918701171875e+00 7.103561878204345703e+00 7.274272918701171875e+00 2.105466461181640625e+01
1.253594303131103516e+01 -3.477052450180053711e-01 6.562212944030761719e+00 -3.477052450180053711e-01 3.103079605102539062e+01 7.262003898620605469e+00 6.562212944030761719e+00 7.262003898620605469e+00 2.108703613281250000e+01
1.158354091644287109e+01 -1.558128118515014648e+00 5.727043747901916504e-01 -1.558128118515014648e+00 4.015586090087890625e+01 7.855191230773925781e+00 5.727043747901916504e-01 7.855191230773925781e+00 2.339192199707031250e+01