-3.053433593750000000e+04
-3.052686328125000000e+04
-3.052483789062500000e+04
-3.051963867187500000e+04
-3.051436718750000000e+04
-3.051102734375000000e+04
-3.051166992187500000e+04
-3.051168750000000000e+04
-3.051156640625000000e+04
-3.051089843750000000e+04
-3.051059570312500000e+04
-3.051043164062500000e+04
-3.050926562500000000e+04
-3.050742968750000000e+04
-3.050653125000000000e+04
-3.050492773437500000e+04
-3.050713085937500000e+04
-3.050768359375000000e+04
-3.050951757812500000e+04
-3.051003515625000000e+04
-3.051002539062500000e+04
-3.050992578125000000e+04
-3.050965429687500000e+04
-3.050941796875000000e+04
-3.050928710937500000e+04
-3.050915820312500000e+04
-3.050902539062500000e+04
-3.050889453125000000e+04
-3.050819335937500000e+04
-3.050847656250000000e+04
-3.050870703125000000e+04
-3.050873632812500000e+04
-3.050663671875000000e+04
-3.050578515625000000e+04
-3.050570507812500000e+04
-3.050508398437500000e+04
-3.050490429687500000e+04
-3.050474414062500000e+04
-3.050450000000000000e+04
-3.050442187500000000e+04
-3.050441992187500000e+04
-3.050446679687500000e+04
-3.050472265625000000e+04
-3.050504687500000000e+04
-3.050547460937500000e+04
-3.050555078125000000e+04
-3.050567968750000000e+04
-3.050582031250000000e+04
-3.050586718750000000e+04
-3.050586328125000000e+04
-3.050567382812500000e+04
-3.050552929687500000e+04
-3.050520117187500000e+04
-3.050448437500000000e+04
-3.050449609375000000e+04
-3.050466796875000000e+04
-3.050528906250000000e+04
-3.050629687500000000e+04
-3.050658398437500000e+04
-3.050650390625000000e+04
-3.050616796875000000e+04
-3.050612109375000000e+04
-3.050603710937500000e+04
-3.050598828125000000e+04
-3.050616406250000000e+04
-3.050632421875000000e+04
-3.050664062500000000e+04
-3.050729296875000000e+04
-3.050812500000000000e+04
-3.050830859375000000e+04
-3.050816796875000000e+04
-3.050811132812500000e+04
-3.050812890625000000e+04
-3.050830859375000000e+04
-3.050870703125000000e+04
-3.050868750000000000e+04
-3.050844140625000000e+04
-3.050838281250000000e+04
-3.050667968750000000e+04
-3.050652734375000000e+04
-3.050637109375000000e+04
-3.050442968750000000e+04
-3.050432617187500000e+04
-3.050396093750000000e+04
-3.050413281250000000e+04
-3.050499023437500000e+04
-3.050512890625000000e+04
-3.050540429687500000e+04
-3.050609570312500000e+04
-3.050614062500000000e+04
-3.050626171875000000e+04
-3.050636523437500000e+04
-3.050643554687500000e+04
-3.050644726562500000e+04
-3.050645507812500000e+04
-3.050648828125000000e+04
-3.050678906250000000e+04
-3.050686914062500000e+04
-3.050696289062500000e+04
-3.050718945312500000e+04
-3.050746093750000000e+04
-3.050813867187500000e+04
-3.050851562500000000e+04
-3.050963671875000000e+04
-3.051036132812500000e+04
-3.051044531250000000e+04
-3.051025781250000000e+04
-3.050826562500000000e+04
-3.050803320312500000e+04
-3.050757617187500000e+04
-3.050735742187500000e+04
-3.050675976562500000e+04
-3.050658984375000000e+04
-3.050594921875000000e+04
-3.050574804687500000e+04
-3.050577539062500000e+04
-3.050581445312500000e+04
-3.050595898437500000e+04
-3.050636718750000000e+04
-3.050638085937500000e+04
-3.050631250000000000e+04
-3.050622851562500000e+04
-3.050561523437500000e+04
-3.050545312500000000e+04
-3.050544921875000000e+04
-3.050551367187500000e+04
-3.050554296875000000e+04
-3.050557617187500000e+04
-3.050642968750000000e+04
-3.050644335937500000e+04
-3.050615625000000000e+04
-3.050609960937500000e+04
-3.050592968750000000e+04
-3.050575195312500000e+04
-3.050570507812500000e+04
-3.050596679687500000e+04
-3.050648046875000000e+04
-3.050760937500000000e+04
-3.050779492187500000e+04
-3.050808398437500000e+04
-3.050797460937500000e+04
-3.050786132812500000e+04
-3.050787695312500000e+04
-3.050789453125000000e+04
-3.050798437500000000e+04
-3.050813671875000000e+04
-3.050831054687500000e+04
-3.050819335937500000e+04
-3.050807031250000000e+04
-3.050782421875000000e+04
-3.050685937500000000e+04
-3.050622070312500000e+04
-3.050552343750000000e+04
-3.050543945312500000e+04
-3.050543554687500000e+04
-3.050550976562500000e+04
-3.050560742187500000e+04
-3.050602929687500000e+04
-3.050625781250000000e+04
-3.050645703125000000e+04
-3.050659570312500000e+04
-3.050665820312500000e+04
-3.050645117187500000e+04
-3.050583593750000000e+04
-3.050574218750000000e+04
-3.050597656250000000e+04
-3.050624609375000000e+04
-3.050683203125000000e+04
-3.050714257812500000e+04
-3.050738867187500000e+04
-3.050703906250000000e+04
-3.050697851562500000e+04
-3.050681445312500000e+04
-3.050670117187500000e+04
-3.050665820312500000e+04
-3.050666210937500000e+04
-3.050698242187500000e+04
-3.050701953125000000e+04
-3.050708593750000000e+04
-3.050701367187500000e+04
-3.050696093750000000e+04
-3.050689062500000000e+04
-3.050693945312500000e+04
-3.050693554687500000e+04
-3.050682421875000000e+04
-3.050617187500000000e+04
-3.050603515625000000e+04
-3.050661718750000000e+04
-3.050661718750000000e+04
-3.050638671875000000e+04
-3.050553906250000000e+04
-3.050574023437500000e+04
-3.050598632812500000e+04
-3.050616992187500000e+04
-3.050702539062500000e+04
-3.050698828125000000e+04
-3.050597460937500000e+04
-3.050411523437500000e+04
-3.050415429687500000e+04
-3.050441210937500000e+04
-3.050564062500000000e+04
-3.050606835937500000e+04
-3.050632617187500000e+04
-3.050637890625000000e+04
-3.050635937500000000e+04
-3.050600976562500000e+04
-3.050549804687500000e+04
-3.050468945312500000e+04
-3.050449023437500000e+04
-3.050445703125000000e+04
-3.050480078125000000e+04
-3.050506835937500000e+04
-3.050507031250000000e+04
-3.050506835937500000e+04
-3.050477734375000000e+04
-3.050468750000000000e+04
-3.050430078125000000e+04
-3.050427734375000000e+04
-3.050414453125000000e+04
-3.050405078125000000e+04
-3.050395312500000000e+04
-3.050392968750000000e+04
-3.050390039062500000e+04
-3.050381250000000000e+04
-3.050381640625000000e+04
-3.050388281250000000e+04
-3.050398046875000000e+04
-3.050431445312500000e+04
-3.050441601562500000e+04
-3.050446679687500000e+04
-3.050466015625000000e+04
-3.050535742187500000e+04
-3.050561718750000000e+04
-3.050652539062500000e+04
-3.050661914062500000e+04
-3.050666015625000000e+04
-3.050679296875000000e+04
-3.050678906250000000e+04
-3.050660351562500000e+04
-3.050645703125000000e+04
-3.050641992187500000e+04
-3.050628906250000000e+04
-3.050615039062500000e+04
-3.050601953125000000e+04
-3.050590234375000000e+04
-3.050622265625000000e+04
-3.050622656250000000e+04
-3.050578320312500000e+04
-3.050570703125000000e+04
-3.050562500000000000e+04
-3.050554296875000000e+04
-3.050491796875000000e+04
-3.050473437500000000e+04
-3.050436132812500000e+04
-3.050426367187500000e+04
-3.050396484375000000e+04
-3.050340039062500000e+04
-3.050315429687500000e+04
-3.050312109375000000e+04
-3.050309960937500000e+04
-3.050359765625000000e+04
-3.050379687500000000e+04
-3.050400781250000000e+04
-3.050440625000000000e+04
-3.050480664062500000e+04
-3.050502343750000000e+04
-3.050506054687500000e+04
-3.050527734375000000e+04
-3.050564453125000000e+04
-3.050569726562500000e+04
-3.050575781250000000e+04
-3.050600781250000000e+04
-3.050620703125000000e+04
-3.050660742187500000e+04
-3.050685546875000000e+04
-3.050713476562500000e+04
-3.050719531250000000e+04
-3.050730078125000000e+04
-3.050732226562500000e+04
-3.050678125000000000e+04
-3.050669726562500000e+04
-3.050544726562500000e+04
-3.050537500000000000e+04
-3.050516015625000000e+04
-3.050466015625000000e+04
-3.050425390625000000e+04
-3.050425390625000000e+04
-3.050426367187500000e+04
-3.050454687500000000e+04
-3.050463281250000000e+04
-3.050504296875000000e+04
-3.050509960937500000e+04
-3.050536718750000000e+04
-3.050547851562500000e+04
-3.050545312500000000e+04
-3.050538281250000000e+04
-3.050528710937500000e+04
-3.050423437500000000e+04
-3.050416601562500000e+04
-3.050413476562500000e+04
-3.050404882812500000e+04
-3.050383593750000000e+04
-3.050361132812500000e+04
-3.050356445312500000e+04
-3.050328125000000000e+04
-3.050346679687500000e+04
-3.050362304687500000e+04
-3.050370312500000000e+04
-3.050407226562500000e+04
-3.050436914062500000e+04
-3.050457421875000000e+04
-3.050521484375000000e+04
-3.050642382812500000e+04
-3.050662500000000000e+04
-3.050607421875000000e+04
-3.050595507812500000e+04
-3.050499023437500000e+04
-3.050486328125000000e+04
-3.050473437500000000e+04
-3.050412500000000000e+04
-3.050392578125000000e+04
-3.050389843750000000e+04
-3.050391796875000000e+04
-3.050397460937500000e+04
-3.050494726562500000e+04
-3.050501953125000000e+04
-3.050516015625000000e+04
-3.050522656250000000e+04
-3.050534765625000000e+04
-3.050556640625000000e+04
-3.050548828125000000e+04
-3.050493945312500000e+04
-3.050427148437500000e+04
-3.050408984375000000e+04
-3.050425781250000000e+04
-3.050436523437500000e+04
-3.050460937500000000e+04
-3.050493554687500000e+04
-3.050495312500000000e+04
-3.050495507812500000e+04
-3.050410546875000000e+04
-3.050332031250000000e+04
-3.050317773437500000e+04
-3.050299218750000000e+04
-3.050236328125000000e+04
-3.050248242187500000e+04
-3.050284179687500000e+04
-3.050287304687500000e+04
-3.050289062500000000e+04
-3.050288476562500000e+04
-3.050288281250000000e+04
-3.050295898437500000e+04
-3.050310156250000000e+04
-3.050314648437500000e+04
-3.050396289062500000e+04
-3.050426171875000000e+04
-3.050410937500000000e+04
-3.050406835937500000e+04
-3.050394335937500000e+04
-3.050386718750000000e+04
-3.050373828125000000e+04
-3.050375000000000000e+04
-3.050376367187500000e+04
-3.050405273437500000e+04
-3.050406445312500000e+04
-3.050398828125000000e+04
-3.050396484375000000e+04
-3.050384570312500000e+04
-3.050365625000000000e+04
-3.050347656250000000e+04
-3.050331640625000000e+04
-3.050226367187500000e+04
-3.050233203125000000e+04
-3.050251171875000000e+04
-3.050258593750000000e+04
-3.050286523437500000e+04
-3.050296679687500000e+04
-3.050393554687500000e+04
-3.050359960937500000e+04
-3.050329882812500000e+04
-3.050315625000000000e+04
-3.050305273437500000e+04
-3.050294921875000000e+04
-3.050288085937500000e+04
-3.050285351562500000e+04
-3.050284570312500000e+04
-3.050284375000000000e+04
-3.050284179687500000e+04
-3.050285546875000000e+04
-3.050358984375000000e+04
-3.050392187500000000e+04
-3.050398242187500000e+04
-3.050428320312500000e+04
-3.050434570312500000e+04
-3.050439062500000000e+04
-3.050432812500000000e+04
-3.050385546875000000e+04
-3.050298242187500000e+04
-3.050271679687500000e+04
-3.050283593750000000e+04
-3.050290820312500000e+04
-3.050308789062500000e+04
-3.050318750000000000e+04
-3.050340039062500000e+04
-3.050381054687500000e+04
-3.050424414062500000e+04
-3.050428906250000000e+04
-3.050432812500000000e+04
-3.050438281250000000e+04
-3.050440039062500000e+04
-3.050436328125000000e+04
-3.050347265625000000e+04
-3.050339062500000000e+04
-3.050286328125000000e+04
-3.050275390625000000e+04
-3.050271093750000000e+04
-3.050260546875000000e+04
-3.050274023437500000e+04
-3.050298828125000000e+04
-3.050323437500000000e+04
-3.050427539062500000e+04
-3.050431640625000000e+04
-3.050434375000000000e+04
-3.050410546875000000e+04
-3.050401562500000000e+04
-3.050320703125000000e+04
-3.050287109375000000e+04
-3.050138867187500000e+04
-3.050104882812500000e+04
-3.050136523437500000e+04
-3.050182812500000000e+04
-3.050314648437500000e+04
-3.050316796875000000e+04
-3.050225390625000000e+04
-3.050196484375000000e+04
-3.050152929687500000e+04
-3.050028906250000000e+04
-3.050026953125000000e+04
-3.050040820312500000e+04
-3.050111718750000000e+04
-3.050130078125000000e+04
-3.050160156250000000e+04
-3.050165820312500000e+04
-3.050196679687500000e+04
-3.050204687500000000e+04
-3.050213476562500000e+04
-3.050214062500000000e+04
-3.050202539062500000e+04
-3.050195898437500000e+04
-3.050184375000000000e+04
-3.050180273437500000e+04
-3.050188476562500000e+04
-3.050222851562500000e+04
-3.050226953125000000e+04
-3.050241406250000000e+04
-3.050243359375000000e+04
-3.050242773437500000e+04
-3.050211328125000000e+04
-3.050183984375000000e+04
-3.050150976562500000e+04
-3.050133007812500000e+04
-3.050106640625000000e+04
-3.050076171875000000e+04
-3.050054492187500000e+04
-3.050053320312500000e+04
-3.050054882812500000e+04
-3.050160937500000000e+04
-3.050205468750000000e+04
-3.050212500000000000e+04
-3.050218554687500000e+04
-3.050223437500000000e+04
-3.050227539062500000e+04
-3.050220898437500000e+04
-3.050185156250000000e+04
-3.050156445312500000e+04
-3.050241406250000000e+04
-3.050297656250000000e+04
-3.050302929687500000e+04
-3.050270703125000000e+04
-3.050251757812500000e+04
-3.050197460937500000e+04
-3.050186132812500000e+04
-3.050154492187500000e+04
-3.050113085937500000e+04
-3.050106835937500000e+04
-3.050104882812500000e+04
-3.050104687500000000e+04
-3.050110742187500000e+04
-3.050116601562500000e+04
-3.050124414062500000e+04
-3.050131250000000000e+04
-3.050136328125000000e+04
-3.050140820312500000e+04
-3.050166210937500000e+04
-3.050205859375000000e+04
-3.050303906250000000e+04
-3.050281054687500000e+04
-3.050241601562500000e+04
-3.050234570312500000e+04
-3.050233593750000000e+04
-3.050243164062500000e+04
-3.050251171875000000e+04
-3.050273632812500000e+04
-3.050283007812500000e+04
-3.050286914062500000e+04
-3.050282617187500000e+04
-3.050273828125000000e+04
-3.050259570312500000e+04
-3.050257812500000000e+04
-3.050275585937500000e+04
-3.050354882812500000e+04
-3.050368945312500000e+04
-3.050392187500000000e+04
-3.050396484375000000e+04
-3.050406054687500000e+04
-3.050407812500000000e+04
-3.050404687500000000e+04
-3.050398828125000000e+04
-3.050397070312500000e+04
-3.050395703125000000e+04
-3.050395312500000000e+04
-3.050395117187500000e+04
-3.050392968750000000e+04
-3.050392187500000000e+04
-3.050386718750000000e+04
-3.050378710937500000e+04
-3.050349804687500000e+04
-3.050345703125000000e+04
-3.050325585937500000e+04
-3.050258593750000000e+04
-3.050196875000000000e+04
-3.050183984375000000e+04
-3.050171484375000000e+04
-3.050136718750000000e+04
-3.050095507812500000e+04
-3.050098632812500000e+04
-3.050121289062500000e+04
-3.050125000000000000e+04
-3.050129101562500000e+04
-3.050158007812500000e+04
-3.050156250000000000e+04
-3.050155859375000000e+04
-3.050156445312500000e+04
-3.050158398437500000e+04
-3.050178320312500000e+04
-3.050180468750000000e+04
-3.050187890625000000e+04
-3.050189257812500000e+04
-3.050184960937500000e+04
-3.050141406250000000e+04
-3.050144140625000000e+04
-3.050148046875000000e+04
-3.050176367187500000e+04
-3.050221875000000000e+04
-3.050234375000000000e+04
-3.050239648437500000e+04
-3.050248632812500000e+04
-3.050252148437500000e+04
-3.050219726562500000e+04
-3.050094726562500000e+04
-3.050011718750000000e+04
-3.049940820312500000e+04
-3.049899609375000000e+04
-3.049885351562500000e+04
-3.049871093750000000e+04
-3.049870117187500000e+04
-3.049876757812500000e+04
-3.049885351562500000e+04
-3.049968945312500000e+04
-3.049978906250000000e+04
-3.049999023437500000e+04
-3.050055468750000000e+04
-3.050087500000000000e+04
-3.050095898437500000e+04
-3.050015429687500000e+04
-3.049892382812500000e+04
-3.049872070312500000e+04
-3.049877343750000000e+04
-3.049901562500000000e+04
-3.049942382812500000e+04
-3.049958398437500000e+04
-3.050083789062500000e+04
-3.050193750000000000e+04
-3.050208593750000000e+04
-3.050213671875000000e+04
-3.050217968750000000e+04
-3.050220507812500000e+04
-3.050219921875000000e+04
-3.050204882812500000e+04
-3.050199414062500000e+04
-3.050112109375000000e+04
-3.050120117187500000e+04
-3.050125585937500000e+04
-3.050132617187500000e+04
-3.050150195312500000e+04
-3.050236328125000000e+04
-3.050250000000000000e+04
-3.050276757812500000e+04
-3.050311523437500000e+04
-3.050337304687500000e+04
-3.050348632812500000e+04
-3.050336328125000000e+04
-3.050307421875000000e+04
-3.050266406250000000e+04
-3.050250781250000000e+04
-3.050234179687500000e+04
-3.050141992187500000e+04
-3.050052148437500000e+04
-3.049943945312500000e+04
-3.049985156250000000e+04
-3.050009570312500000e+04
-3.050048437500000000e+04
-3.050067187500000000e+04
-3.050086132812500000e+04
-3.050087500000000000e+04
-3.050088085937500000e+04
-3.050017578125000000e+04
-3.049993359375000000e+04
-3.049984375000000000e+04
-3.049980664062500000e+04
-3.049973242187500000e+04
-3.049983984375000000e+04
-3.049991406250000000e+04
-3.050012890625000000e+04
-3.050020898437500000e+04
-3.050023437500000000e+04
-3.050022656250000000e+04
-3.050003125000000000e+04
-3.049998046875000000e+04
-3.049990429687500000e+04
-3.049946679687500000e+04
-3.049850976562500000e+04
-3.049816210937500000e+04
-3.049779687500000000e+04
-3.049678125000000000e+04
-3.049632617187500000e+04
-3.049637304687500000e+04
-3.049682031250000000e+04
-3.049742968750000000e+04
-3.049767773437500000e+04
-3.049818359375000000e+04
-3.049908007812500000e+04
-3.049996093750000000e+04
-3.050006054687500000e+04
-3.050015625000000000e+04
-3.050031054687500000e+04
-3.050048828125000000e+04
-3.050020703125000000e+04
-3.049976367187500000e+04
-3.049953320312500000e+04
-3.049940429687500000e+04
-3.049926757812500000e+04
-3.049896679687500000e+04
-3.049741992187500000e+04
-3.049689648437500000e+04
-3.049697851562500000e+04
-3.049759960937500000e+04
-3.049841992187500000e+04
-3.049884570312500000e+04
-3.049892968750000000e+04
-3.049914453125000000e+04
-3.049912890625000000e+04
-3.049909375000000000e+04
-3.049876562500000000e+04
-3.049815429687500000e+04
-3.049807617187500000e+04
-3.049786914062500000e+04
-3.049768164062500000e+04
-3.049788867187500000e+04
-3.049809960937500000e+04
-3.049824609375000000e+04
-3.049828710937500000e+04
-3.049832421875000000e+04
-3.049835156250000000e+04
-3.049821289062500000e+04
-3.049807226562500000e+04
-3.049798828125000000e+04
-3.049742187500000000e+04
-3.049556250000000000e+04
-3.049544726562500000e+04
-3.049504882812500000e+04
-3.049519335937500000e+04
-3.049573632812500000e+04
-3.049751367187500000e+04
-3.049892773437500000e+04
-3.049930664062500000e+04
-3.049948437500000000e+04
-3.050081640625000000e+04
-3.050095117187500000e+04
-3.050104882812500000e+04
-3.050090039062500000e+04
-3.050026367187500000e+04
-3.049998046875000000e+04
-3.049955859375000000e+04
-3.049929101562500000e+04
-3.049894726562500000e+04
-3.049868359375000000e+04
-3.049831054687500000e+04
-3.049823437500000000e+04
-3.049807812500000000e+04
-3.049811718750000000e+04
-3.049835156250000000e+04
-3.049863671875000000e+04
-3.049875976562500000e+04
-3.049994140625000000e+04
-3.050051953125000000e+04
-3.050087695312500000e+04
-3.050103710937500000e+04
-3.050168750000000000e+04
-3.050158593750000000e+04
-3.050118359375000000e+04
-3.050076562500000000e+04
-3.050030664062500000e+04
-3.050000195312500000e+04
-3.049957421875000000e+04
-3.049931640625000000e+04
-3.049888671875000000e+04
-3.049862890625000000e+04
-3.049841210937500000e+04
-3.049791406250000000e+04
-3.049758789062500000e+04
-3.049763476562500000e+04
-3.049840625000000000e+04
-3.049892773437500000e+04
-3.049968554687500000e+04
-3.049975195312500000e+04
-3.049984765625000000e+04
-3.049981250000000000e+04
-3.049958203125000000e+04
-3.049914062500000000e+04
-3.049907421875000000e+04
-3.049893359375000000e+04
-3.049904101562500000e+04
-3.049918945312500000e+04
-3.049974609375000000e+04
-3.050024023437500000e+04
-3.050066992187500000e+04
-3.050072851562500000e+04
-3.050016796875000000e+04
-3.049954296875000000e+04
-3.049836523437500000e+04
-3.049798632812500000e+04
-3.049800195312500000e+04
-3.049819140625000000e+04
-3.049886132812500000e+04
-3.049906445312500000e+04
-3.050001171875000000e+04
-3.049995898437500000e+04
-3.049989062500000000e+04
-3.049926367187500000e+04
-3.049908789062500000e+04
-3.049826953125000000e+04
-3.049759765625000000e+04
-3.049607421875000000e+04
-3.049604101562500000e+04
-3.049663476562500000e+04
-3.049727148437500000e+04
-3.049775781250000000e+04
-3.049790820312500000e+04
-3.049896875000000000e+04
-3.049901757812500000e+04
-3.049891796875000000e+04
-3.049888281250000000e+04
-3.049884570312500000e+04
-3.049815234375000000e+04
-3.049785351562500000e+04
-3.049729101562500000e+04
-3.049740820312500000e+04
-3.049769726562500000e+04
-3.049773046875000000e+04
-3.049776367187500000e+04
-3.049783984375000000e+04
-3.049669335937500000e+04
-3.049625585937500000e+04
-3.049609375000000000e+04
-3.049603125000000000e+04
-3.049602539062500000e+04
-3.049619726562500000e+04
-3.049669531250000000e+04
-3.049770898437500000e+04
-3.049827734375000000e+04
-3.049861914062500000e+04
-3.049891015625000000e+04
-3.049862304687500000e+04
-3.049825195312500000e+04
-3.049794140625000000e+04
-3.049454296875000000e+04
-3.049442773437500000e+04
-3.049448632812500000e+04
-3.049455664062500000e+04
-3.049689453125000000e+04
-3.049761328125000000e+04
-3.049784375000000000e+04
-3.049699609375000000e+04
-3.049687109375000000e+04
-3.049675585937500000e+04
-3.049600000000000000e+04
-3.049573437500000000e+04
-3.049565625000000000e+04
-3.049524609375000000e+04
-3.049518750000000000e+04
-3.049505078125000000e+04
-3.049495312500000000e+04
-3.049560937500000000e+04
-3.049619140625000000e+04
-3.049709375000000000e+04
-3.049730859375000000e+04
-3.049735742187500000e+04
-3.049742382812500000e+04
-3.049741992187500000e+04
-3.049662109375000000e+04
-3.049634960937500000e+04
-3.049621093750000000e+04
-3.049542578125000000e+04
-3.049495703125000000e+04
-3.049529296875000000e+04
-3.049580273437500000e+04
-3.049663085937500000e+04
-3.049687109375000000e+04
-3.049710742187500000e+04
-3.049814648437500000e+04
-3.049840039062500000e+04
-3.049839453125000000e+04
-3.049829101562500000e+04
-3.049677929687500000e+04
-3.049656640625000000e+04
-3.049632031250000000e+04
-3.049621875000000000e+04
-3.049618945312500000e+04
-3.049617382812500000e+04
-3.049617773437500000e+04
-3.049619726562500000e+04
-3.049622851562500000e+04
-3.049626562500000000e+04
-3.049630859375000000e+04
-3.049635742187500000e+04
-3.049668359375000000e+04
-3.049640820312500000e+04
-3.049636328125000000e+04
-3.049632812500000000e+04
-3.049624218750000000e+04
-3.049621484375000000e+04
-3.049657812500000000e+04
-3.049685742187500000e+04
-3.049743359375000000e+04
-3.049752539062500000e+04
-3.049859179687500000e+04
-3.049871679687500000e+04
-3.049882031250000000e+04
-3.049864257812500000e+04
-3.049831835937500000e+04
-3.049824804687500000e+04
-3.049809765625000000e+04
-3.049802539062500000e+04
-3.049782421875000000e+04
-3.049744335937500000e+04
-3.049704101562500000e+04
-3.049678515625000000e+04
-3.049538281250000000e+04
-3.049505468750000000e+04
-3.049478320312500000e+04
-3.049512695312500000e+04
-3.049530273437500000e+04
-3.049547460937500000e+04
-3.049546875000000000e+04
-3.049549609375000000e+04
-3.049564062500000000e+04
-3.049582812500000000e+04
-3.049580468750000000e+04
-3.049562695312500000e+04
-3.049529296875000000e+04
-3.049469921875000000e+04
-3.049395703125000000e+04
-3.049371093750000000e+04
-3.049364062500000000e+04
-3.049352343750000000e+04
-3.049344335937500000e+04
-3.049377734375000000e+04
-3.049388671875000000e+04
-3.049428320312500000e+04
-3.049437695312500000e+04
-3.049457812500000000e+04
-3.049468945312500000e+04
-3.049500390625000000e+04
-3.049508007812500000e+04
-3.049424609375000000e+04
-3.049388476562500000e+04
-3.049464062500000000e+04
-3.049473242187500000e+04
-3.049483203125000000e+04
-3.049565429687500000e+04
-3.049629296875000000e+04
-3.049645117187500000e+04
-3.049652734375000000e+04
-3.049800976562500000e+04
-3.049806445312500000e+04
-3.049814453125000000e+04
-3.049806835937500000e+04
-3.049791015625000000e+04
-3.049756054687500000e+04
-3.049679492187500000e+04
-3.049646093750000000e+04
-3.049613476562500000e+04
-3.049580859375000000e+04
-3.049501953125000000e+04
-3.049442382812500000e+04
-3.049368750000000000e+04
-3.049345898437500000e+04
-3.049344726562500000e+04
-3.049328906250000000e+04
-3.049286132812500000e+04
-3.049282812500000000e+04
-3.049277929687500000e+04
-3.049276953125000000e+04
-3.049321093750000000e+04
-3.049328125000000000e+04
-3.049391015625000000e+04
-3.049425585937500000e+04
-3.049456835937500000e+04
-3.049471289062500000e+04
-3.049480273437500000e+04
-3.049504296875000000e+04
-3.049504296875000000e+04
-3.049458398437500000e+04
-3.049434570312500000e+04
-3.049426367187500000e+04
-3.049418554687500000e+04
-3.049397851562500000e+04
-3.049388085937500000e+04
-3.049380664062500000e+04
-3.049394921875000000e+04
-3.049405468750000000e+04
-3.049416992187500000e+04
-3.049434179687500000e+04
-3.049444531250000000e+04
-3.049449023437500000e+04
-3.049452734375000000e+04
-3.049458789062500000e+04
-3.049461718750000000e+04
-3.049460937500000000e+04
-3.049451757812500000e+04
-3.049428320312500000e+04
-3.049418554687500000e+04
-3.049425195312500000e+04
-3.049435351562500000e+04
-3.049442187500000000e+04
-3.049450390625000000e+04
-3.049562500000000000e+04
-3.049569921875000000e+04
-3.049564453125000000e+04
-3.049525195312500000e+04
-3.049477734375000000e+04
-3.049434570312500000e+04
-3.049415039062500000e+04
-3.049411132812500000e+04
-3.049412695312500000e+04
-3.049431835937500000e+04
-3.049441992187500000e+04
-3.049604882812500000e+04
-3.049645703125000000e+04
-3.049701757812500000e+04
-3.049778515625000000e+04
-3.049758398437500000e+04
-3.049673828125000000e+04
-3.049631054687500000e+04
-3.049543164062500000e+04
-3.049497265625000000e+04
-3.049479101562500000e+04
-3.049475195312500000e+04
-3.049425585937500000e+04
-3.049421093750000000e+04
-3.049393750000000000e+04
-3.049405859375000000e+04
-3.049455078125000000e+04
-3.049498437500000000e+04
-3.049594726562500000e+04
-3.049658398437500000e+04
-3.049694921875000000e+04
-3.049702539062500000e+04
-3.049703710937500000e+04
-3.049700390625000000e+04
-3.049698437500000000e+04
-3.049691406250000000e+04
-3.049698242187500000e+04
-3.049706250000000000e+04
-3.049721875000000000e+04
-3.049737890625000000e+04
-3.049720703125000000e+04
-3.049673632812500000e+04
-3.049664257812500000e+04
-3.049634765625000000e+04
-3.049644921875000000e+04
-3.049652734375000000e+04
-3.049721875000000000e+04
-3.049742382812500000e+04
-3.049738085937500000e+04
-3.049732617187500000e+04
-3.049725390625000000e+04
-3.049691406250000000e+04
-3.049677343750000000e+04
