-1.313302636718750000e+04
-1.313350195312500000e+04
-1.313314550781250000e+04
-1.313166992187500000e+04
-1.312906054687500000e+04
-1.312418164062500000e+04
-1.312500097656250000e+04
-1.312593164062500000e+04
-1.312614355468750000e+04
-1.312644921875000000e+04
-1.312642773437500000e+04
-1.312639453125000000e+04
-1.312592480468750000e+04
-1.312540039062500000e+04
-1.312537402343750000e+04
-1.312504296875000000e+04
-1.312510937500000000e+04
-1.312535644531250000e+04
-1.312639648437500000e+04
-1.312683300781250000e+04
-1.312685644531250000e+04
-1.312681738281250000e+04
-1.312666406250000000e+04
-1.312651562500000000e+04
-1.312644433593750000e+04
-1.312636132812500000e+04
-1.312627832031250000e+04
-1.312619921875000000e+04
-1.312584082031250000e+04
-1.312592968750000000e+04
-1.312587207031250000e+04
-1.312579687500000000e+04
-1.312461621093750000e+04
-1.312445019531250000e+04
-1.312439550781250000e+04
-1.312406542968750000e+04
-1.312400488281250000e+04
-1.312396679687500000e+04
-1.312398828125000000e+04
-1.312408886718750000e+04
-1.312413867187500000e+04
-1.312432226562500000e+04
-1.312475292968750000e+04
-1.312519726562500000e+04
-1.312576269531250000e+04
-1.312587597656250000e+04
-1.312608496093750000e+04
-1.312636328125000000e+04
-1.312659082031250000e+04
-1.312665722656250000e+04
-1.312687109375000000e+04
-1.312691113281250000e+04
-1.312691308593750000e+04
-1.312640039062500000e+04
-1.312607812500000000e+04
-1.312574023437500000e+04
-1.312534570312500000e+04
-1.312560058593750000e+04
-1.312593652343750000e+04
-1.312628906250000000e+04
-1.312650292968750000e+04
-1.312652734375000000e+04
-1.312657519531250000e+04
-1.312662402343750000e+04
-1.312669628906250000e+04
-1.312671191406250000e+04
-1.312673828125000000e+04
-1.312672656250000000e+04
-1.312671582031250000e+04
-1.312678613281250000e+04
-1.312678027343750000e+04
-1.312665429687500000e+04
-1.312661035156250000e+04
-1.312630273437500000e+04
-1.312518164062500000e+04
-1.312504980468750000e+04
-1.312493847656250000e+04
-1.312508007812500000e+04
-1.312633105468750000e+04
-1.312627734375000000e+04
-1.312621484375000000e+04
-1.312521386718750000e+04
-1.312517187500000000e+04
-1.312525683593750000e+04
-1.312531835937500000e+04
-1.312468261718750000e+04
-1.312448632812500000e+04
-1.312410351562500000e+04
-1.312349804687500000e+04
-1.312349414062500000e+04
-1.312352441406250000e+04
-1.312364843750000000e+04
-1.312390527343750000e+04
-1.312395312500000000e+04
-1.312399707031250000e+04
-1.312413671875000000e+04
-1.312450585937500000e+04
-1.312457128906250000e+04
-1.312463964843750000e+04
-1.312479492187500000e+04
-1.312496875000000000e+04
-1.312534277343750000e+04
-1.312554687500000000e+04
-1.312616015625000000e+04
-1.312676464843750000e+04
-1.312693457031250000e+04
-1.312716308593750000e+04
-1.312613574218750000e+04
-1.312597460937500000e+04
-1.312567675781250000e+04
-1.312554687500000000e+04
-1.312527734375000000e+04
-1.312523046875000000e+04
-1.312530468750000000e+04
-1.312581835937500000e+04
-1.312588671875000000e+04
-1.312594921875000000e+04
-1.312609179687500000e+04
-1.312603027343750000e+04
-1.312597460937500000e+04
-1.312558886718750000e+04
-1.312540332031250000e+04
-1.312440820312500000e+04
-1.312410546875000000e+04
-1.312405957031250000e+04
-1.312404882812500000e+04
-1.312406445312500000e+04
-1.312408398437500000e+04
-1.312521777343750000e+04
-1.312529101562500000e+04
-1.312563085937500000e+04
-1.312560449218750000e+04
-1.312544238281250000e+04
-1.312512792968750000e+04
-1.312495996093750000e+04
-1.312462890625000000e+04
-1.312484960937500000e+04
-1.312551562500000000e+04
-1.312558203125000000e+04
-1.312551464843750000e+04
-1.312501171875000000e+04
-1.312544042968750000e+04
-1.312555078125000000e+04
-1.312566113281250000e+04
-1.312607910156250000e+04
-1.312643457031250000e+04
-1.312648437500000000e+04
-1.312616308593750000e+04
-1.312605273437500000e+04
-1.312590332031250000e+04
-1.312569921875000000e+04
-1.312571386718750000e+04
-1.312600097656250000e+04
-1.312610644531250000e+04
-1.312648046875000000e+04
-1.312659570312500000e+04
-1.312670214843750000e+04
-1.312689550781250000e+04
-1.312693554687500000e+04
-1.312696484375000000e+04
-1.312699707031250000e+04
-1.312704199218750000e+04
-1.312720800781250000e+04
-1.312704394531250000e+04
-1.312672558593750000e+04
-1.312580468750000000e+04
-1.312536523437500000e+04
-1.312484472656250000e+04
-1.312472851562500000e+04
-1.312474023437500000e+04
-1.312518359375000000e+04
-1.312522363281250000e+04
-1.312531835937500000e+04
-1.312539257812500000e+04
-1.312542382812500000e+04
-1.312542382812500000e+04
-1.312525195312500000e+04
-1.312523437500000000e+04
-1.312520996093750000e+04
-1.312588378906250000e+04
-1.312596777343750000e+04
-1.312609277343750000e+04
-1.312661621093750000e+04
-1.312658496093750000e+04
-1.312644824218750000e+04
-1.312569531250000000e+04
-1.312550097656250000e+04
-1.312531152343750000e+04
-1.312534082031250000e+04
-1.312554394531250000e+04
-1.312594824218750000e+04
-1.312599902343750000e+04
-1.312598828125000000e+04
-1.312595410156250000e+04
-1.312546582031250000e+04
-1.312522070312500000e+04
-1.312479394531250000e+04
-1.312478125000000000e+04
-1.312479589843750000e+04
-1.312480371093750000e+04
-1.312466503906250000e+04
-1.312460644531250000e+04
-1.312459667968750000e+04
-1.312471777343750000e+04
-1.312475878906250000e+04
-1.312519921875000000e+04
-1.312560937500000000e+04
-1.312533886718750000e+04
-1.312511230468750000e+04
-1.312505664062500000e+04
-1.312546386718750000e+04
-1.312644824218750000e+04
-1.312663281250000000e+04
-1.312670214843750000e+04
-1.312691015625000000e+04
-1.312684765625000000e+04
-1.312584082031250000e+04
-1.312572070312500000e+04
-1.312514160156250000e+04
-1.312516210937500000e+04
-1.312538281250000000e+04
-1.312544824218750000e+04
-1.312550585937500000e+04
-1.312570214843750000e+04
-1.312557617187500000e+04
-1.312535156250000000e+04
-1.312507128906250000e+04
-1.312438574218750000e+04
-1.312427050781250000e+04
-1.312425683593750000e+04
-1.312569628906250000e+04
-1.312525000000000000e+04
-1.312498828125000000e+04
-1.312410839843750000e+04
-1.312405566406250000e+04
-1.312403613281250000e+04
-1.312412109375000000e+04
-1.312414941406250000e+04
-1.312454101562500000e+04
-1.312481250000000000e+04
-1.312488671875000000e+04
-1.312511718750000000e+04
-1.312535351562500000e+04
-1.312560351562500000e+04
-1.312673828125000000e+04
-1.312595703125000000e+04
-1.312582031250000000e+04
-1.312429687500000000e+04
-1.312420996093750000e+04
-1.312414453125000000e+04
-1.312410449218750000e+04
-1.312451757812500000e+04
-1.312479394531250000e+04
-1.312540429687500000e+04
-1.312555371093750000e+04
-1.312594238281250000e+04
-1.312637792968750000e+04
-1.312637304687500000e+04
-1.312633789062500000e+04
-1.312629589843750000e+04
-1.312599121093750000e+04
-1.312607617187500000e+04
-1.312620410156250000e+04
-1.312646582031250000e+04
-1.312651757812500000e+04
-1.312623339843750000e+04
-1.312612011718750000e+04
-1.312465429687500000e+04
-1.312481445312500000e+04
-1.312486132812500000e+04
-1.312490722656250000e+04
-1.312499121093750000e+04
-1.312493652343750000e+04
-1.312461230468750000e+04
-1.312440234375000000e+04
-1.312430566406250000e+04
-1.312432324218750000e+04
-1.312440429687500000e+04
-1.312453222656250000e+04
-1.312492968750000000e+04
-1.312495312500000000e+04
-1.312443945312500000e+04
-1.312434863281250000e+04
-1.312404589843750000e+04
-1.312326171875000000e+04
-1.312238964843750000e+04
-1.312228125000000000e+04
-1.312226464843750000e+04
-1.312434570312500000e+04
-1.312470410156250000e+04
-1.312583203125000000e+04
-1.312595996093750000e+04
-1.312638671875000000e+04
-1.312621191406250000e+04
-1.312614843750000000e+04
-1.312601562500000000e+04
-1.312589257812500000e+04
-1.312572949218750000e+04
-1.312577832031250000e+04
-1.312580566406250000e+04
-1.312589746093750000e+04
-1.312638574218750000e+04
-1.312666308593750000e+04
-1.312668945312500000e+04
-1.312673535156250000e+04
-1.312637597656250000e+04
-1.312635351562500000e+04
-1.312635156250000000e+04
-1.312634765625000000e+04
-1.312630468750000000e+04
-1.312622949218750000e+04
-1.312578710937500000e+04
-1.312493750000000000e+04
-1.312526757812500000e+04
-1.312613183593750000e+04
-1.312623437500000000e+04
-1.312671777343750000e+04
-1.312675195312500000e+04
-1.312677929687500000e+04
-1.312673242187500000e+04
-1.312618652343750000e+04
-1.312557812500000000e+04
-1.312467968750000000e+04
-1.312425585937500000e+04
-1.312368750000000000e+04
-1.312374121093750000e+04
-1.312385156250000000e+04
-1.312391503906250000e+04
-1.312403027343750000e+04
-1.312462304687500000e+04
-1.312471386718750000e+04
-1.312509472656250000e+04
-1.312527050781250000e+04
-1.312498437500000000e+04
-1.312433886718750000e+04
-1.312415234375000000e+04
-1.312386425781250000e+04
-1.312379101562500000e+04
-1.312382714843750000e+04
-1.312407421875000000e+04
-1.312444726562500000e+04
-1.312453710937500000e+04
-1.312459960937500000e+04
-1.312479980468750000e+04
-1.312746582031250000e+04
-1.312764941406250000e+04
-1.312584277343750000e+04
-1.312542773437500000e+04
-1.312427050781250000e+04
-1.312410839843750000e+04
-1.312381542968750000e+04
-1.312334375000000000e+04
-1.312356835937500000e+04
-1.312363281250000000e+04
-1.312395703125000000e+04
-1.312373339843750000e+04
-1.312367773437500000e+04
-1.312368457031250000e+04
-1.312371972656250000e+04
-1.312374902343750000e+04
-1.312383593750000000e+04
-1.312401269531250000e+04
-1.312400878906250000e+04
-1.312355957031250000e+04
-1.312354882812500000e+04
-1.312358691406250000e+04
-1.312359179687500000e+04
-1.312360253906250000e+04
-1.312360839843750000e+04
-1.312362988281250000e+04
-1.312365527343750000e+04
-1.312364355468750000e+04
-1.312336230468750000e+04
-1.312339160156250000e+04
-1.312341503906250000e+04
-1.312353417968750000e+04
-1.312358691406250000e+04
-1.312396191406250000e+04
-1.312357031250000000e+04
-1.312386816406250000e+04
-1.312417480468750000e+04
-1.312454687500000000e+04
-1.312507812500000000e+04
-1.312555761718750000e+04
-1.312582421875000000e+04
-1.312588867187500000e+04
-1.312593750000000000e+04
-1.312597851562500000e+04
-1.312600781250000000e+04
-1.312454492187500000e+04
-1.312418457031250000e+04
-1.312412695312500000e+04
-1.312388476562500000e+04
-1.312384960937500000e+04
-1.312384375000000000e+04
-1.312391406250000000e+04
-1.312431054687500000e+04
-1.312479296875000000e+04
-1.312521191406250000e+04
-1.312530371093750000e+04
-1.312535644531250000e+04
-1.312546679687500000e+04
-1.312552636718750000e+04
-1.312564257812500000e+04
-1.312586816406250000e+04
-1.312608398437500000e+04
-1.312609179687500000e+04
-1.312609667968750000e+04
-1.312607128906250000e+04
-1.312586425781250000e+04
-1.312571679687500000e+04
-1.312404980468750000e+04
-1.312394921875000000e+04
-1.312329003906250000e+04
-1.312314160156250000e+04
-1.312307910156250000e+04
-1.312288183593750000e+04
-1.312285742187500000e+04
-1.312299902343750000e+04
-1.312314355468750000e+04
-1.312358886718750000e+04
-1.312358496093750000e+04
-1.312357714843750000e+04
-1.312345703125000000e+04
-1.312344335937500000e+04
-1.312336621093750000e+04
-1.312332714843750000e+04
-1.312311718750000000e+04
-1.312316894531250000e+04
-1.312322363281250000e+04
-1.312324707031250000e+04
-1.312336328125000000e+04
-1.312388281250000000e+04
-1.312384667968750000e+04
-1.312373535156250000e+04
-1.312351269531250000e+04
-1.312280175781250000e+04
-1.312278320312500000e+04
-1.312280859375000000e+04
-1.312325097656250000e+04
-1.312351171875000000e+04
-1.312406738281250000e+04
-1.312418652343750000e+04
-1.312484667968750000e+04
-1.312501562500000000e+04
-1.312523925781250000e+04
-1.312526953125000000e+04
-1.312510253906250000e+04
-1.312494042968750000e+04
-1.312447167968750000e+04
-1.312403906250000000e+04
-1.312324121093750000e+04
-1.312292871093750000e+04
-1.312296093750000000e+04
-1.312326953125000000e+04
-1.312344238281250000e+04
-1.312363378906250000e+04
-1.312448925781250000e+04
-1.312474414062500000e+04
-1.312489062500000000e+04
-1.312491894531250000e+04
-1.312492773437500000e+04
-1.312488085937500000e+04
-1.312472753906250000e+04
-1.312461914062500000e+04
-1.312456054687500000e+04
-1.312352929687500000e+04
-1.312344238281250000e+04
-1.312345605468750000e+04
-1.312348535156250000e+04
-1.312352343750000000e+04
-1.312356933593750000e+04
-1.312412988281250000e+04
-1.312445410156250000e+04
-1.312457031250000000e+04
-1.312421484375000000e+04
-1.312343847656250000e+04
-1.312323242187500000e+04
-1.312294335937500000e+04
-1.312313769531250000e+04
-1.312403710937500000e+04
-1.312425878906250000e+04
-1.312492773437500000e+04
-1.312578808593750000e+04
-1.312583398437500000e+04
-1.312575488281250000e+04
-1.312567285156250000e+04
-1.312512304687500000e+04
-1.312476855468750000e+04
-1.312422363281250000e+04
-1.312376171875000000e+04
-1.312343847656250000e+04
-1.312322460937500000e+04
-1.312333789062500000e+04
-1.312339550781250000e+04
-1.312326562500000000e+04
-1.312323730468750000e+04
-1.312317773437500000e+04
-1.312311035156250000e+04
-1.312307519531250000e+04
-1.312268945312500000e+04
-1.312249121093750000e+04
-1.312187597656250000e+04
-1.312148144531250000e+04
-1.312101074218750000e+04
-1.312072558593750000e+04
-1.312050585937500000e+04
-1.312030371093750000e+04
-1.311989648437500000e+04
-1.311977832031250000e+04
-1.311992578125000000e+04
-1.312002441406250000e+04
-1.312025976562500000e+04
-1.312032519531250000e+04
-1.312052343750000000e+04
-1.312059570312500000e+04
-1.312122460937500000e+04
-1.312134277343750000e+04
-1.312132714843750000e+04
-1.312117773437500000e+04
-1.312107031250000000e+04
-1.312100488281250000e+04
-1.312068261718750000e+04
-1.312062597656250000e+04
-1.312046875000000000e+04
-1.312046093750000000e+04
-1.312102343750000000e+04
-1.312111816406250000e+04
-1.312155175781250000e+04
-1.312233300781250000e+04
-1.312258789062500000e+04
-1.312261035156250000e+04
-1.312262304687500000e+04
-1.312260253906250000e+04
-1.312201757812500000e+04
-1.312198339843750000e+04
-1.312190234375000000e+04
-1.312190527343750000e+04
-1.312191503906250000e+04
-1.312223730468750000e+04
-1.312220703125000000e+04
-1.312203515625000000e+04
-1.312201074218750000e+04
-1.312198730468750000e+04
-1.312262402343750000e+04
-1.312272753906250000e+04
-1.312317675781250000e+04
-1.312332421875000000e+04
-1.312321484375000000e+04
-1.312170605468750000e+04
-1.312192773437500000e+04
-1.312219628906250000e+04
-1.312316308593750000e+04
-1.312372753906250000e+04
-1.312380371093750000e+04
-1.312382519531250000e+04
-1.312384277343750000e+04
-1.312384570312500000e+04
-1.312367089843750000e+04
-1.312346484375000000e+04
-1.312328027343750000e+04
-1.312296191406250000e+04
-1.312263378906250000e+04
-1.312246289062500000e+04
-1.312222167968750000e+04
-1.312194921875000000e+04
-1.312199023437500000e+04
-1.312208496093750000e+04
-1.312310644531250000e+04
-1.312321972656250000e+04
-1.312343652343750000e+04
-1.312405273437500000e+04
-1.312453710937500000e+04
-1.312494628906250000e+04
-1.312600292968750000e+04
-1.312563671875000000e+04
-1.312519335937500000e+04
-1.312500878906250000e+04
-1.312476074218750000e+04
-1.312453613281250000e+04
-1.312446777343750000e+04
-1.312407421875000000e+04
-1.312378125000000000e+04
-1.312373828125000000e+04
-1.312372363281250000e+04
-1.312370507812500000e+04
-1.312369531250000000e+04
-1.312367773437500000e+04
-1.312368066406250000e+04
-1.312368066406250000e+04
-1.312321191406250000e+04
-1.312297265625000000e+04
-1.312288085937500000e+04
-1.312278027343750000e+04
-1.312257226562500000e+04
-1.312171972656250000e+04
-1.312159570312500000e+04
-1.312135644531250000e+04
-1.312103515625000000e+04
-1.312079492187500000e+04
-1.312067675781250000e+04
-1.312076757812500000e+04
-1.312097460937500000e+04
-1.312120996093750000e+04
-1.312129785156250000e+04
-1.312138183593750000e+04
-1.312170996093750000e+04
-1.312183105468750000e+04
-1.312299804687500000e+04
-1.312308007812500000e+04
-1.312293359375000000e+04
-1.312233105468750000e+04
-1.312172363281250000e+04
-1.312108691406250000e+04
-1.312121484375000000e+04
-1.312151953125000000e+04
-1.312316210937500000e+04
-1.312364355468750000e+04
-1.312382812500000000e+04
-1.312390332031250000e+04
-1.312403613281250000e+04
-1.312360839843750000e+04
-1.312337890625000000e+04
-1.312273632812500000e+04
-1.312252050781250000e+04
-1.312250781250000000e+04
-1.312254394531250000e+04
-1.312264941406250000e+04
-1.312256542968750000e+04
-1.312235253906250000e+04
-1.312122753906250000e+04
-1.312093164062500000e+04
-1.312107617187500000e+04
-1.312126660156250000e+04
-1.312162988281250000e+04
-1.312074902343750000e+04
-1.312050878906250000e+04
-1.311947851562500000e+04
-1.311885449218750000e+04
-1.311870996093750000e+04
-1.311857812500000000e+04
-1.311882617187500000e+04
-1.311971289062500000e+04
-1.311988964843750000e+04
-1.312007714843750000e+04
-1.312048632812500000e+04
-1.312191308593750000e+04
-1.312366015625000000e+04
-1.312459375000000000e+04
-1.312482324218750000e+04
-1.312490625000000000e+04
-1.312496289062500000e+04
-1.312500781250000000e+04
-1.312425976562500000e+04
-1.312371289062500000e+04
-1.312292675781250000e+04
-1.312303710937500000e+04
-1.312346093750000000e+04
-1.312380859375000000e+04
-1.312389257812500000e+04
-1.312422753906250000e+04
-1.312461328125000000e+04
-1.312468652343750000e+04
-1.312504101562500000e+04
-1.312541699218750000e+04
-1.312545605468750000e+04
-1.312555761718750000e+04
-1.312572753906250000e+04
-1.312565429687500000e+04
-1.312540039062500000e+04
-1.312506152343750000e+04
-1.312492089843750000e+04
-1.312476855468750000e+04
-1.312334765625000000e+04
-1.312297558593750000e+04
-1.312276562500000000e+04
-1.312266699218750000e+04
-1.312224609375000000e+04
-1.312227441406250000e+04
-1.312235351562500000e+04
-1.312268652343750000e+04
-1.312304589843750000e+04
-1.312316992187500000e+04
-1.312348046875000000e+04
-1.312338378906250000e+04
-1.312328417968750000e+04
-1.312322656250000000e+04
-1.312238769531250000e+04
-1.312223730468750000e+04
-1.312204687500000000e+04
-1.312194335937500000e+04
-1.312225878906250000e+04
-1.312245898437500000e+04
-1.312282421875000000e+04
-1.312308105468750000e+04
-1.312344335937500000e+04
-1.312375488281250000e+04
-1.312389355468750000e+04
-1.312355664062500000e+04
-1.312300195312500000e+04
-1.312294531250000000e+04
-1.312285937500000000e+04
-1.312279492187500000e+04
-1.312277441406250000e+04
-1.312269726562500000e+04
-1.312275292968750000e+04
-1.312281738281250000e+04
-1.312285742187500000e+04
-1.312330371093750000e+04
-1.312332324218750000e+04
-1.312323730468750000e+04
-1.312305175781250000e+04
-1.312277636718750000e+04
-1.312256738281250000e+04
-1.312224218750000000e+04
-1.312202539062500000e+04
-1.312165722656250000e+04
-1.312143945312500000e+04
-1.312127539062500000e+04
-1.312128808593750000e+04
-1.312208886718750000e+04
-1.312239453125000000e+04
-1.312286425781250000e+04
-1.312283007812500000e+04
-1.312259277343750000e+04
-1.312255273437500000e+04
-1.312248046875000000e+04
-1.312235156250000000e+04
-1.312234179687500000e+04
-1.312246582031250000e+04
-1.312249804687500000e+04
-1.312256152343750000e+04
-1.312260253906250000e+04
-1.312257714843750000e+04
-1.312255078125000000e+04
-1.312255859375000000e+04
-1.312253320312500000e+04
-1.312237597656250000e+04
-1.312204882812500000e+04
-1.312186523437500000e+04
-1.312198925781250000e+04
-1.312273730468750000e+04
-1.312276269531250000e+04
-1.312257519531250000e+04
-1.312184765625000000e+04
-1.312163183593750000e+04
-1.312076074218750000e+04
-1.312081640625000000e+04
-1.312088574218750000e+04
-1.312137109375000000e+04
-1.312147265625000000e+04
-1.312186132812500000e+04
-1.312205859375000000e+04
-1.312190820312500000e+04
-1.312173242187500000e+04
-1.312104199218750000e+04
-1.312070703125000000e+04
-1.312053613281250000e+04
-1.312050585937500000e+04
-1.312073925781250000e+04
-1.312114257812500000e+04
-1.312144238281250000e+04
-1.312148144531250000e+04
-1.312151855468750000e+04
-1.312164941406250000e+04
-1.312175195312500000e+04
-1.312234960937500000e+04
-1.312249804687500000e+04
-1.312240039062500000e+04
-1.312234765625000000e+04
-1.312228320312500000e+04
-1.312185156250000000e+04
-1.312028417968750000e+04
-1.312005957031250000e+04
-1.311987304687500000e+04
-1.311972363281250000e+04
-1.311964550781250000e+04
-1.311924316406250000e+04
-1.311901562500000000e+04
-1.311922558593750000e+04
-1.311955273437500000e+04
-1.311983593750000000e+04
-1.312043261718750000e+04
-1.312077441406250000e+04
-1.312094140625000000e+04
-1.312104394531250000e+04
-1.312240234375000000e+04
-1.312278027343750000e+04
-1.312279687500000000e+04
-1.312279785156250000e+04
-1.312214257812500000e+04
-1.312207324218750000e+04
-1.312208886718750000e+04
-1.312321386718750000e+04
-1.312326367187500000e+04
-1.312331054687500000e+04
-1.312337304687500000e+04
-1.312320703125000000e+04
-1.312312695312500000e+04
-1.312235449218750000e+04
-1.312219140625000000e+04
-1.312165917968750000e+04
-1.312037695312500000e+04
-1.311907128906250000e+04
-1.311894628906250000e+04
-1.311968652343750000e+04
-1.312016406250000000e+04
-1.312034082031250000e+04
-1.312087109375000000e+04
-1.312104199218750000e+04
-1.312217187500000000e+04
-1.312221777343750000e+04
-1.312221386718750000e+04
-1.312199316406250000e+04
-1.312154296875000000e+04
-1.312132031250000000e+04
-1.312107226562500000e+04
-1.312052539062500000e+04
-1.312036230468750000e+04
-1.312021289062500000e+04
-1.312000585937500000e+04
-1.312028320312500000e+04
-1.312038281250000000e+04
-1.312049414062500000e+04
-1.311978320312500000e+04
-1.311962402343750000e+04
-1.311940332031250000e+04
-1.311928027343750000e+04
-1.311921777343750000e+04
-1.311916894531250000e+04
-1.311908984375000000e+04
-1.311906542968750000e+04
-1.311904785156250000e+04
-1.311904199218750000e+04
-1.311904003906250000e+04
-1.311903906250000000e+04
-1.311935839843750000e+04
-1.311936132812500000e+04
-1.311935253906250000e+04
-1.311934472656250000e+04
-1.311928906250000000e+04
-1.311918457031250000e+04
-1.311859570312500000e+04
-1.311844726562500000e+04
-1.311864843750000000e+04
-1.311872167968750000e+04
-1.312012402343750000e+04
-1.312033496093750000e+04
-1.312101953125000000e+04
-1.312117578125000000e+04
-1.312126953125000000e+04
-1.312127441406250000e+04
-1.312127636718750000e+04
-1.312127148437500000e+04
-1.312134863281250000e+04
-1.312116113281250000e+04
-1.312100390625000000e+04
-1.312096972656250000e+04
-1.312075683593750000e+04
-1.312063671875000000e+04
-1.312036816406250000e+04
-1.312019921875000000e+04
-1.312022265625000000e+04
-1.312029687500000000e+04
-1.312033398437500000e+04
-1.312059570312500000e+04
-1.312087207031250000e+04
-1.312154394531250000e+04
-1.312156152343750000e+04
-1.312152148437500000e+04
-1.312133105468750000e+04
-1.312099121093750000e+04
-1.312097265625000000e+04
-1.312113964843750000e+04
-1.312121582031250000e+04
-1.312140527343750000e+04
-1.312212011718750000e+04
-1.312208886718750000e+04
-1.312192382812500000e+04
-1.312083789062500000e+04
-1.312052734375000000e+04
-1.311997558593750000e+04
-1.311975292968750000e+04
-1.311940820312500000e+04
-1.311969238281250000e+04
-1.312127050781250000e+04
-1.312151269531250000e+04
-1.312100292968750000e+04
-1.312102148437500000e+04
-1.312104101562500000e+04
-1.312145898437500000e+04
-1.312201367187500000e+04
-1.312221484375000000e+04
-1.312231640625000000e+04
-1.312312207031250000e+04
-1.312311816406250000e+04
-1.312312500000000000e+04
-1.312324511718750000e+04
-1.312330957031250000e+04
-1.312335156250000000e+04
-1.312315722656250000e+04
-1.312297851562500000e+04
-1.312274804687500000e+04
-1.312248242187500000e+04
-1.312177832031250000e+04
-1.312129394531250000e+04
-1.312085937500000000e+04
-1.312103808593750000e+04
-1.312106542968750000e+04
-1.312111230468750000e+04
-1.312074609375000000e+04
-1.312070703125000000e+04
-1.312065527343750000e+04
-1.312061425781250000e+04
-1.312044042968750000e+04
-1.312039257812500000e+04
-1.311975488281250000e+04
-1.311925878906250000e+04
-1.311870703125000000e+04
-1.311844824218750000e+04
-1.311827343750000000e+04
-1.311766796875000000e+04
-1.311761718750000000e+04
-1.311748535156250000e+04
-1.311761230468750000e+04
-1.311767187500000000e+04
-1.311773828125000000e+04
-1.311798925781250000e+04
-1.311818359375000000e+04
-1.311884667968750000e+04
-1.311925878906250000e+04
-1.311944042968750000e+04
-1.311960449218750000e+04
-1.311981445312500000e+04
-1.311995117187500000e+04
-1.312002050781250000e+04
-1.312008496093750000e+04
-1.312022265625000000e+04
-1.312037304687500000e+04
-1.312061035156250000e+04
-1.312093945312500000e+04
-1.312132714843750000e+04
-1.312151171875000000e+04
-1.312155468750000000e+04
-1.312158007812500000e+04
-1.312159179687500000e+04
-1.312160351562500000e+04
-1.312167578125000000e+04
-1.312158496093750000e+04
-1.312151464843750000e+04
-1.312133105468750000e+04
-1.312127246093750000e+04
-1.312139550781250000e+04
-1.312164453125000000e+04
-1.312187402343750000e+04
-1.312199902343750000e+04
-1.312241015625000000e+04
-1.312254101562500000e+04
-1.312323437500000000e+04
-1.312323925781250000e+04
-1.312317480468750000e+04
-1.312279785156250000e+04
-1.312260351562500000e+04
-1.312246679687500000e+04
-1.312238281250000000e+04
-1.312194433593750000e+04
-1.312125781250000000e+04
-1.312070410156250000e+04
-1.312055664062500000e+04
-1.311900781250000000e+04
-1.311894140625000000e+04
-1.311879394531250000e+04
-1.311903613281250000e+04
-1.311958593750000000e+04
-1.312002636718750000e+04
-1.312093652343750000e+04
-1.312156640625000000e+04
-1.312193847656250000e+04
-1.312200292968750000e+04
-1.312200292968750000e+04
-1.312185156250000000e+04
-1.312178125000000000e+04
-1.312140039062500000e+04
-1.312077539062500000e+04
-1.312061914062500000e+04
-1.312046191406250000e+04
-1.312042968750000000e+04
-1.312048242187500000e+04
-1.312058984375000000e+04
-1.312061328125000000e+04
-1.312068359375000000e+04
-1.312069628906250000e+04
-1.312068164062500000e+04
-1.312041699218750000e+04
-1.312011132812500000e+04
-1.311980957031250000e+04
-1.311969433593750000e+04
-1.311957910156250000e+04
-1.311924023437500000e+04
-1.311913281250000000e+04
