3.544326305389404297e+00 5.293183326721191406e-01 -1.295830488204956055e+00 5.293183326721191406e-01 -2.933055639266967773e+00 -7.666844129562377930e-02 -1.295830488204956055e+00 -7.666844129562377930e-02 2.582807540893554688e+00
9.287967681884765625e+00 6.953684806823730469e+00 2.088371515274047852e+00 6.953684806823730469e+00 4.639675617218017578e+00 -1.762525141239166260e-01 2.088371515274047852e+00 -1.762525141239166260e-01 1.020811176300048828e+01
1.097552776336669922e+01 7.815511226654052734e+00 3.048976659774780273e+00 7.815511226654052734e+00 6.532794952392578125e+00 -6.454284489154815674e-02 3.048976659774780273e+00 -6.454284489154815674e-02 1.263553524017333984e+01
1.603592109680175781e+01 9.131543159484863281e+00 5.021674633026123047e+00 9.131543159484863281e+00 1.157358074188232422e+01 1.930720806121826172e-01 5.021674633026123047e+00 1.930720806121826172e-01 2.040777587890625000e+01
2.259177589416503906e+01 9.174192428588867188e+00 5.436749458312988281e+00 9.174192428588867188e+00 1.710688972473144531e+01 3.913172185420989990e-01 5.436749458312988281e+00 3.913172185420989990e-01 3.123516464233398438e+01
2.898074531555175781e+01 3.168509483337402344e+00 -7.146632671356201172e+00 3.168509483337402344e+00 2.416181564331054688e+01 -1.145150065422058105e+00 -7.146632671356201172e+00 -1.145150065422058105e+00 4.351501846313476562e+01
2.504693794250488281e+01 3.075686693191528320e+00 -7.970598220825195312e+00 3.075686693191528320e+00 2.314763832092285156e+01 -1.900316238403320312e+00 -7.970598220825195312e+00 -1.900316238403320312e+00 3.705946350097656250e+01
2.109422874450683594e+01 2.430804252624511719e+00 -6.381041049957275391e+00 2.430804252624511719e+00 2.142454719543457031e+01 -2.778886318206787109e+00 -6.381041049957275391e+00 -2.778886318206787109e+00 3.046992874145507812e+01
2.006762695312500000e+01 1.982279062271118164e+00 -5.708924770355224609e+00 1.982279062271118164e+00 2.076522254943847656e+01 -3.156706094741821289e+00 -5.708924770355224609e+00 -3.156706094741821289e+00 2.875431442260742188e+01
1.815125846862792969e+01 -1.650745570659637451e-01 -3.034898042678833008e+00 -1.650745570659637451e-01 1.911557579040527344e+01 -4.694558143615722656e+00 -3.034898042678833008e+00 -4.694558143615722656e+00 2.474946403503417969e+01
1.786019325256347656e+01 -1.099338650703430176e+00 -1.967562556266784668e+00 -1.099338650703430176e+00 1.857093238830566406e+01 -5.258157253265380859e+00 -1.967562556266784668e+00 -5.258157253265380859e+00 2.379356765747070312e+01
1.775544357299804688e+01 -1.551441073417663574e+00 -1.480514407157897949e+00 -1.551441073417663574e+00 1.826625061035156250e+01 -5.510932922363281250e+00 -1.480514407157897949e+00 -5.510932922363281250e+00 2.334916877746582031e+01
1.789936637878417969e+01 -4.404522418975830078e+00 9.865718483924865723e-01 -4.404522418975830078e+00 1.693320083618164062e+01 -6.636857986450195312e+00 9.865718483924865723e-01 -6.636857986450195312e+00 2.136607551574707031e+01
1.805425262451171875e+01 -5.909803390502929688e+00 1.499205231666564941e+00 -5.909803390502929688e+00 1.488103008270263672e+01 -5.468953609466552734e+00 1.499205231666564941e+00 -5.468953609466552734e+00 1.911592483520507812e+01
1.795639228820800781e+01 -5.103069782257080078e+00 2.768622338771820068e-01 -5.103069782257080078e+00 1.366635036468505859e+01 -3.874738931655883789e+00 2.768622338771820068e-01 -3.874738931655883789e+00 1.865282440185546875e+01
1.610459327697753906e+01 -1.927382469177246094e+00 -3.380330562591552734e+00 -1.927382469177246094e+00 9.815809249877929688e+00 -1.267085790634155273e+00 -3.380330562591552734e+00 -1.267085790634155273e+00 1.801472663879394531e+01
1.031386756896972656e+01 4.110851764678955078e+00 -4.293125152587890625e+00 4.110851764678955078e+00 5.886466503143310547e+00 -1.498438954353332520e+00 -4.293125152587890625e+00 -1.498438954353332520e+00 1.506281185150146484e+01
9.539068222045898438e+00 4.823064804077148438e+00 -4.291439533233642578e+00 4.823064804077148438e+00 5.748692512512207031e+00 -1.405001640319824219e+00 -4.291439533233642578e+00 -1.405001640319824219e+00 1.453462409973144531e+01
7.336396217346191406e+00 7.432713031768798828e+00 -3.757890462875366211e+00 7.432713031768798828e+00 5.958063125610351562e+00 -2.749238610267639160e-01 -3.757890462875366211e+00 -2.749238610267639160e-01 1.335804843902587891e+01
7.006339073181152344e+00 8.827855110168457031e+00 -3.427565097808837891e+00 8.827855110168457031e+00 7.356336593627929688e+00 6.725017428398132324e-01 -3.427565097808837891e+00 6.725017428398132324e-01 1.427050971984863281e+01
7.358244419097900391e+00 9.309668540954589844e+00 -3.402350664138793945e+00 9.309668540954589844e+00 8.200826644897460938e+00 1.029055714607238770e+00 -3.402350664138793945e+00 1.029055714607238770e+00 1.491623592376708984e+01
7.897186756134033203e+00 9.617215156555175781e+00 -3.365597963333129883e+00 9.617215156555175781e+00 9.051653861999511719e+00 1.297954201698303223e+00 -3.365597963333129883e+00 1.297954201698303223e+00 1.571527576446533203e+01
8.960577964782714844e+00 1.011614704132080078e+01 -3.432365655899047852e+00 1.011614704132080078e+01 1.056335067749023438e+01 1.657040476799011230e+00 -3.432365655899047852e+00 1.657040476799011230e+00 1.691240882873535156e+01
9.748010635375976562e+00 1.030737400054931641e+01 -3.490914821624755859e+00 1.030737400054931641e+01 1.159881591796875000e+01 1.720348119735717773e+00 -3.490914821624755859e+00 1.720348119735717773e+00 1.772043991088867188e+01
1.011070346832275391e+01 1.046994113922119141e+01 -3.553961515426635742e+00 1.046994113922119141e+01 1.201530361175537109e+01 1.808700680732727051e+00 -3.553961515426635742e+00 1.808700680732727051e+00 1.803451728820800781e+01
1.057842922210693359e+01 1.051872825622558594e+01 -3.640539169311523438e+00 1.051872825622558594e+01 1.253006839752197266e+01 1.795869588851928711e+00 -3.640539169311523438e+00 1.795869588851928711e+00 1.837447357177734375e+01
1.104565715789794922e+01 1.057042503356933594e+01 -3.693288803100585938e+00 1.057042503356933594e+01 1.303343772888183594e+01 1.788343310356140137e+00 -3.693288803100585938e+00 1.788343310356140137e+00 1.871365165710449219e+01
1.152069091796875000e+01 1.063493347167968750e+01 -3.766632080078125000e+00 1.063493347167968750e+01 1.355024433135986328e+01 1.795287013053894043e+00 -3.766632080078125000e+00 1.795287013053894043e+00 1.900892448425292969e+01
1.569138622283935547e+01 1.008573341369628906e+01 -5.072481155395507812e+00 1.008573341369628906e+01 1.697130203247070312e+01 1.191315174102783203e+00 -5.072481155395507812e+00 1.191315174102783203e+00 1.980707740783691406e+01
1.748656272888183594e+01 8.255372047424316406e+00 -6.112019062042236328e+00 8.255372047424316406e+00 1.782058715820312500e+01 9.898590445518493652e-01 -6.112019062042236328e+00 9.898590445518493652e-01 1.865033531188964844e+01
1.865067863464355469e+01 6.119868278503417969e+00 -6.563364982604980469e+00 6.119868278503417969e+00 1.796599006652832031e+01 1.304238080978393555e+00 -6.563364982604980469e+00 1.304238080978393555e+00 1.806684112548828125e+01
1.922496604919433594e+01 5.086970806121826172e+00 -6.616054534912109375e+00 5.086970806121826172e+00 1.784781074523925781e+01 1.560913443565368652e+00 -6.616054534912109375e+00 1.560913443565368652e+00 1.798319053649902344e+01
2.813132858276367188e+01 -2.876551866531372070e+00 -1.996177673339843750e+00 -2.876551866531372070e+00 1.361398696899414062e+01 5.930147647857666016e+00 -1.996177673339843750e+00 5.930147647857666016e+00 1.769151496887207031e+01
2.804129600524902344e+01 1.913858652114868164e-01 3.216696739196777344e+00 1.913858652114868164e-01 1.428031349182128906e+01 4.715703964233398438e+00 3.216696739196777344e+00 4.715703964233398438e+00 1.662711524963378906e+01
2.810432624816894531e+01 4.237914681434631348e-01 3.538643836975097656e+00 4.237914681434631348e-01 1.448800182342529297e+01 4.530821800231933594e+00 3.538643836975097656e+00 4.530821800231933594e+00 1.664694595336914062e+01
2.815159416198730469e+01 2.110023975372314453e+00 5.151956081390380859e+00 2.110023975372314453e+00 1.563272190093994141e+01 3.171653509140014648e+00 5.151956081390380859e+00 3.171653509140014648e+00 1.661027717590332031e+01
2.810560226440429688e+01 2.560509443283081055e+00 5.473870754241943359e+00 2.560509443283081055e+00 1.594393634796142578e+01 2.812516689300537109e+00 5.473870754241943359e+00 2.812516689300537109e+00 1.663246726989746094e+01
2.804763984680175781e+01 3.010481834411621094e+00 5.756688594818115234e+00 3.010481834411621094e+00 1.625449180603027344e+01 2.451354503631591797e+00 5.756688594818115234e+00 2.451354503631591797e+00 1.670156097412109375e+01
2.748942756652832031e+01 3.711799144744873047e+00 6.164522647857666016e+00 3.711799144744873047e+00 1.654236030578613281e+01 1.869654178619384766e+00 6.164522647857666016e+00 1.869654178619384766e+00 1.668405914306640625e+01
2.668432235717773438e+01 3.948929309844970703e+00 6.298848152160644531e+00 3.948929309844970703e+00 1.650493049621582031e+01 1.644075870513916016e+00 6.298848152160644531e+00 1.644075870513916016e+00 1.647432518005371094e+01
2.636754798889160156e+01 3.958642721176147461e+00 6.353591918945312500e+00 3.958642721176147461e+00 1.646491241455078125e+01 1.620964884757995605e+00 6.353591918945312500e+00 1.620964884757995605e+00 1.637608528137207031e+01
2.537260055541992188e+01 3.769299268722534180e+00 6.349484920501708984e+00 3.769299268722534180e+00 1.637441825866699219e+01 1.566254854202270508e+00 6.349484920501708984e+00 1.566254854202270508e+00 1.626608848571777344e+01
2.344248580932617188e+01 2.841179609298706055e+00 5.892863273620605469e+00 2.841179609298706055e+00 1.642261886596679688e+01 1.810786962509155273e+00 5.892863273620605469e+00 1.810786962509155273e+00 1.633747863769531250e+01
2.153310966491699219e+01 1.825698852539062500e+00 5.034934997558593750e+00 1.825698852539062500e+00 1.624439811706542969e+01 2.328181028366088867e+00 5.034934997558593750e+00 2.328181028366088867e+00 1.645469284057617188e+01
1.886727905273437500e+01 8.558049201965332031e-01 3.634178400039672852e+00 8.558049201965332031e-01 1.605973434448242188e+01 3.131837368011474609e+00 3.634178400039672852e+00 3.131837368011474609e+00 1.691267395019531250e+01
1.831768798828125000e+01 7.330611348152160645e-01 3.321585178375244141e+00 7.330611348152160645e-01 1.596428966522216797e+01 3.292271375656127930e+00 3.321585178375244141e+00 3.292271375656127930e+00 1.698713874816894531e+01
1.730903244018554688e+01 5.351831316947937012e-01 2.678292751312255859e+00 5.351831316947937012e-01 1.588809967041015625e+01 3.642292737960815430e+00 2.678292751312255859e+00 3.642292737960815430e+00 1.725982856750488281e+01
1.602120780944824219e+01 3.781813979148864746e-01 1.723469018936157227e+00 3.781813979148864746e-01 1.594130611419677734e+01 4.139320850372314453e+00 1.723469018936157227e+00 4.139320850372314453e+00 1.773457717895507812e+01
1.503014659881591797e+01 3.971039950847625732e-01 8.368980288505554199e-01 3.971039950847625732e-01 1.603636932373046875e+01 4.689431667327880859e+00 8.368980288505554199e-01 4.689431667327880859e+00 1.836319351196289062e+01
1.470318317413330078e+01 4.694531261920928955e-01 6.022804975509643555e-01 4.694531261920928955e-01 1.605752563476562500e+01 4.859129905700683594e+00 6.022804975509643555e-01 4.859129905700683594e+00 1.858447265625000000e+01
1.354553604125976562e+01 1.342139720916748047e+00 -3.712146282196044922e-01 1.342139720916748047e+00 1.635008049011230469e+01 5.553221225738525391e+00 -3.712146282196044922e-01 5.553221225738525391e+00 1.969101715087890625e+01
1.325865459442138672e+01 1.805873274803161621e+00 -5.683409571647644043e-01 1.805873274803161621e+00 1.656877326965332031e+01 5.815106868743896484e+00 -5.683409571647644043e-01 5.815106868743896484e+00 2.016621780395507812e+01
1.303203296661376953e+01 2.759749650955200195e+00 -8.846194148063659668e-01 2.759749650955200195e+00 1.721746635437011719e+01 6.321291923522949219e+00 -8.846194148063659668e-01 6.321291923522949219e+00 2.113990783691406250e+01
1.430197429656982422e+01 5.437150478363037109e+00 -7.525551319122314453e-01 5.437150478363037109e+00 2.012628746032714844e+01 6.933064460754394531e+00 -7.525551319122314453e-01 6.933064460754394531e+00 2.467416763305664062e+01
1.505103206634521484e+01 5.896284103393554688e+00 -7.121103405952453613e-01 5.896284103393554688e+00 2.117303085327148438e+01 6.869752883911132812e+00 -7.121103405952453613e-01 6.869752883911132812e+00 2.619969367980957031e+01
1.570436191558837891e+01 6.087817192077636719e+00 -8.383614420890808105e-01 6.087817192077636719e+00 2.189538574218750000e+01 6.637610912322998047e+00 -8.383614420890808105e-01 6.637610912322998047e+00 2.767175674438476562e+01
1.671924591064453125e+01 5.357407569885253906e+00 -1.371064305305480957e+00 5.357407569885253906e+00 2.197902297973632812e+01 5.157251358032226562e+00 -1.371064305305480957e+00 5.157251358032226562e+00 2.929923057556152344e+01
1.735340118408203125e+01 2.250413894653320312e+00 -2.375547409057617188e+00 2.250413894653320312e+00 1.977606201171875000e+01 1.683422327041625977e+00 -2.375547409057617188e+00 1.683422327041625977e+00 2.792159461975097656e+01
1.731569290161132812e+01 -2.614226937294006348e-01 -2.672019243240356445e+00 -2.614226937294006348e-01 1.809768104553222656e+01 -2.930171489715576172e-01 -2.672019243240356445e+00 -2.930171489715576172e-01 2.596424484252929688e+01
1.697669792175292969e+01 -3.360394954681396484e+00 -2.415321588516235352e+00 -3.360394954681396484e+00 1.613962745666503906e+01 -1.867606639862060547e+00 -2.415321588516235352e+00 -1.867606639862060547e+00 2.329400062561035156e+01
1.637112617492675781e+01 -6.118319988250732422e+00 -1.794716238975524902e+00 -6.118319988250732422e+00 1.465928077697753906e+01 -3.003885746002197266e+00 -1.794716238975524902e+00 -3.003885746002197266e+00 2.090501976013183594e+01
1.627169609069824219e+01 -6.536096572875976562e+00 -1.675321102142333984e+00 -6.536096572875976562e+00 1.445970821380615234e+01 -3.138763189315795898e+00 -1.675321102142333984e+00 -3.138763189315795898e+00 2.054131126403808594e+01
1.601551628112792969e+01 -7.277693748474121094e+00 -1.412156701087951660e+00 -7.277693748474121094e+00 1.409740161895751953e+01 -3.399235725402832031e+00 -1.412156701087951660e+00 -3.399235725402832031e+00 1.974612045288085938e+01
1.572845935821533203e+01 -8.355800628662109375e+00 -1.148258090019226074e+00 -8.355800628662109375e+00 1.365755271911621094e+01 -3.795435905456542969e+00 -1.148258090019226074e+00 -3.795435905456542969e+00 1.876855659484863281e+01
1.539629268646240234e+01 -9.862735748291015625e+00 -6.354117989540100098e-01 -9.862735748291015625e+00 1.299049282073974609e+01 -4.265818595886230469e+00 -6.354117989540100098e-01 -4.265818595886230469e+00 1.719616889953613281e+01
1.536017513275146484e+01 -1.041315555572509766e+01 -5.096687674522399902e-01 -1.041315555572509766e+01 1.283289241790771484e+01 -4.413075447082519531e+00 -5.096687674522399902e-01 -4.413075447082519531e+00 1.665064811706542969e+01
1.549963283538818359e+01 -1.119321441650390625e+01 -2.767544984817504883e-01 -1.119321441650390625e+01 1.247655200958251953e+01 -4.629271030426025391e+00 -2.767544984817504883e-01 -4.629271030426025391e+00 1.569898414611816406e+01
1.654978752136230469e+01 -1.215602684020996094e+01 4.708516597747802734e-02 -1.215602684020996094e+01 1.218232536315917969e+01 -4.768728733062744141e+00 4.708516597747802734e-02 -4.768728733062744141e+00 1.472376060485839844e+01
1.820818901062011719e+01 -1.287703037261962891e+01 8.025766611099243164e-01 -1.287703037261962891e+01 1.193869876861572266e+01 -4.855421543121337891e+00 8.025766611099243164e-01 -4.855421543121337891e+00 1.329020977020263672e+01
1.947117996215820312e+01 -1.190555763244628906e+01 2.337098836898803711e+00 -1.190555763244628906e+01 1.353338909149169922e+01 -5.159530639648437500e+00 2.337098836898803711e+00 -5.159530639648437500e+00 1.234290695190429688e+01
1.920318412780761719e+01 -1.072847270965576172e+01 2.902836799621582031e+00 -1.072847270965576172e+01 1.493525409698486328e+01 -5.232219219207763672e+00 2.902836799621582031e+00 -5.232219219207763672e+00 1.277129364013671875e+01
1.827021217346191406e+01 -8.589405059814453125e+00 3.230395793914794922e+00 -8.589405059814453125e+00 1.699077415466308594e+01 -5.148614406585693359e+00 3.230395793914794922e+00 -5.148614406585693359e+00 1.401540088653564453e+01
1.805775451660156250e+01 -8.092129707336425781e+00 3.241658926010131836e+00 -8.092129707336425781e+00 1.740616416931152344e+01 -5.074369430541992188e+00 3.241658926010131836e+00 -5.074369430541992188e+00 1.431330490112304688e+01
1.713702201843261719e+01 -5.347755908966064453e+00 3.139789342880249023e+00 -5.347755908966064453e+00 1.950078582763671875e+01 -4.552049636840820312e+00 3.139789342880249023e+00 -4.552049636840820312e+00 1.629249954223632812e+01
1.757100868225097656e+01 3.280112504959106445e+00 8.787783235311508179e-02 3.280112504959106445e+00 2.157766532897949219e+01 -2.102499246597290039e+00 8.787783235311508179e-02 -2.102499246597290039e+00 2.114929199218750000e+01
1.804999351501464844e+01 4.165692329406738281e+00 -4.577782452106475830e-01 4.165692329406738281e+00 2.141878700256347656e+01 -1.767472386360168457e+00 -4.577782452106475830e-01 -1.767472386360168457e+00 2.129121398925781250e+01
2.045320129394531250e+01 6.848424911499023438e+00 -2.126123428344726562e+00 6.848424911499023438e+00 1.785380363464355469e+01 8.448331356048583984e-01 -2.126123428344726562e+00 8.448331356048583984e-01 1.918508338928222656e+01
2.067751121520996094e+01 6.895589828491210938e+00 -1.906946539878845215e+00 6.895589828491210938e+00 1.687100982666015625e+01 1.363065004348754883e+00 -1.906946539878845215e+00 1.363065004348754883e+00 1.838560104370117188e+01
2.527710342407226562e+01 7.801069259643554688e+00 5.954109191894531250e+00 7.801069259643554688e+00 7.178071498870849609e+00 4.075844764709472656e+00 5.954109191894531250e+00 4.075844764709472656e+00 1.369226741790771484e+01
2.571889877319335938e+01 7.947555065155029297e+00 6.324343681335449219e+00 7.947555065155029297e+00 6.978040695190429688e+00 3.986520528793334961e+00 6.324343681335449219e+00 3.986520528793334961e+00 1.401677417755126953e+01
2.614581871032714844e+01 8.092839241027832031e+00 6.685454368591308594e+00 8.092839241027832031e+00 6.855838775634765625e+00 3.909739255905151367e+00 6.685454368591308594e+00 3.909739255905151367e+00 1.438597679138183594e+01
2.954974174499511719e+01 9.134341239929199219e+00 9.141271591186523438e+00 9.134341239929199219e+00 7.482138156890869141e+00 1.441791892051696777e+00 9.141271591186523438e+00 1.441791892051696777e+00 2.141493797302246094e+01
2.954041862487792969e+01 9.080555915832519531e+00 9.136983871459960938e+00 9.080555915832519531e+00 7.628106117248535156e+00 1.181841850280761719e+00 9.136983871459960938e+00 1.181841850280761719e+00 2.193179321289062500e+01
2.639546012878417969e+01 5.978596210479736328e+00 6.999377727508544922e+00 5.978596210479736328e+00 1.012283420562744141e+01 -1.466594815254211426e+00 6.999377727508544922e+00 -1.466594815254211426e+00 2.468438148498535156e+01
2.509983444213867188e+01 4.266872882843017578e+00 6.005764961242675781e+00 4.266872882843017578e+00 1.137360572814941406e+01 -1.943218231201171875e+00 6.005764961242675781e+00 -1.943218231201171875e+00 2.434887123107910156e+01
2.372665596008300781e+01 -9.374127984046936035e-01 3.652546644210815430e+00 -9.374127984046936035e-01 1.741732788085937500e+01 -1.946487545967102051e+00 3.652546644210815430e+00 -1.946487545967102051e+00 2.157784652709960938e+01
2.385756874084472656e+01 -1.524264216423034668e+00 3.397765636444091797e+00 -1.524264216423034668e+00 1.841275024414062500e+01 -1.635038614273071289e+00 3.397765636444091797e+00 -1.635038614273071289e+00 2.121442985534667969e+01
2.407284927368164062e+01 -2.464461088180541992e+00 2.819604396820068359e+00 -2.464461088180541992e+00 1.989345550537109375e+01 -7.453343868255615234e-01 2.819604396820068359e+00 -7.453343868255615234e-01 2.040834045410156250e+01
2.418173980712890625e+01 -3.610757112503051758e+00 1.782612085342407227e+00 -3.610757112503051758e+00 2.009337806701660156e+01 3.632115602493286133e+00 1.782612085342407227e+00 3.632115602493286133e+00 1.951060676574707031e+01
2.409649276733398438e+01 -3.572822332382202148e+00 1.766712784767150879e+00 -3.572822332382202148e+00 1.980233192443847656e+01 4.090488433837890625e+00 1.766712784767150879e+00 4.090488433837890625e+00 1.951319313049316406e+01
2.374516296386718750e+01 -3.381980895996093750e+00 1.728122115135192871e+00 -3.381980895996093750e+00 1.866831016540527344e+01 5.525922775268554688e+00 1.728122115135192871e+00 5.525922775268554688e+00 1.962379264831542969e+01
2.298070144653320312e+01 -2.815597057342529297e+00 1.903432011604309082e+00 -2.815597057342529297e+00 1.671923637390136719e+01 7.379723548889160156e+00 1.903432011604309082e+00 7.379723548889160156e+00 1.989524078369140625e+01
2.127179908752441406e+01 -1.371221661567687988e+00 2.413472414016723633e+00 -1.371221661567687988e+00 1.355800914764404297e+01 9.907481193542480469e+00 2.413472414016723633e+00 9.907481193542480469e+00 2.046441268920898438e+01
2.093472290039062500e+01 -1.062601208686828613e+00 2.497584104537963867e+00 -1.062601208686828613e+00 1.300737762451171875e+01 1.024996662139892578e+01 2.497584104537963867e+00 1.024996662139892578e+01 2.049155426025390625e+01
2.061153411865234375e+01 -7.468319535255432129e-01 2.580398797988891602e+00 -7.468319535255432129e-01 1.251949691772460938e+01 1.056252861022949219e+01 2.580398797988891602e+00 1.056252861022949219e+01 2.056074523925781250e+01
1.954685783386230469e+01 2.017678767442703247e-01 2.799393415451049805e+00 2.017678767442703247e-01 1.101325416564941406e+01 1.138918495178222656e+01 2.799393415451049805e+00 1.138918495178222656e+01 2.065932655334472656e+01
1.696770095825195312e+01 2.508778810501098633e+00 2.990903139114379883e+00 2.508778810501098633e+00 8.202365875244140625e+00 1.207110977172851562e+01 2.990903139114379883e+00 1.207110977172851562e+01 2.049471282958984375e+01
1.659792900085449219e+01 2.836555242538452148e+00 2.951405525207519531e+00 2.836555242538452148e+00 7.847121715545654297e+00 1.204258823394775391e+01 2.951405525207519531e+00 1.204258823394775391e+01 2.041041755676269531e+01
1.620617866516113281e+01 3.111692190170288086e+00 2.894044876098632812e+00 3.111692190170288086e+00 7.509930133819580078e+00 1.194499683380126953e+01 2.894044876098632812e+00 1.194499683380126953e+01 2.037285423278808594e+01
1.536018180847167969e+01 3.568293571472167969e+00 2.752243280410766602e+00 3.568293571472167969e+00 6.753357410430908203e+00 1.169254493713378906e+01 2.752243280410766602e+00 1.169254493713378906e+01 2.008772850036621094e+01
1.447468376159667969e+01 3.950818777084350586e+00 2.524266958236694336e+00 3.950818777084350586e+00 6.009324073791503906e+00 1.128892803192138672e+01 2.524266958236694336e+00 1.128892803192138672e+01 1.971562576293945312e+01
1.257520008087158203e+01 4.338296413421630859e+00 1.940477252006530762e+00 4.338296413421630859e+00 4.711447238922119141e+00 1.021888732910156250e+01 1.940477252006530762e+00 1.021888732910156250e+01 1.891513633728027344e+01
1.156408309936523438e+01 4.393937110900878906e+00 1.552741885185241699e+00 4.393937110900878906e+00 4.030994415283203125e+00 9.625752449035644531e+00 1.552741885185241699e+00 9.625752449035644531e+00 1.840357780456542969e+01
8.676666259765625000e+00 4.206132411956787109e+00 6.134091019630432129e-01 4.206132411956787109e+00 2.699538946151733398e+00 7.799950122833251953e+00 6.134091019630432129e-01 7.799950122833251953e+00 1.699978256225585938e+01
6.058559894561767578e+00 3.714546203613281250e+00 2.409446686506271362e-01 3.714546203613281250e+00 2.486593961715698242e+00 6.372085571289062500e+00 2.409446686506271362e-01 6.372085571289062500e+00 1.529233360290527344e+01
5.282474040985107422e+00 3.593706607818603516e+00 2.962839007377624512e-01 3.593706607818603516e+00 2.877323389053344727e+00 5.994902133941650391e+00 2.962839007377624512e-01 5.994902133941650391e+00 1.473049736022949219e+01
3.796625614166259766e+00 3.393539667129516602e+00 6.313444972038269043e-01 3.393539667129516602e+00 5.063201427459716797e+00 5.195692062377929688e+00 6.313444972038269043e-01 5.195692062377929688e+00 1.360544586181640625e+01
3.079532623291015625e+00 3.720741987228393555e+00 5.483943819999694824e-01 3.720741987228393555e+00 1.535373592376708984e+01 3.063322067260742188e+00 5.483943819999694824e-01 3.063322067260742188e+00 1.416858386993408203e+01
3.190168380737304688e+00 3.776025772094726562e+00 3.904592096805572510e-01 3.776025772094726562e+00 1.647735214233398438e+01 2.716340303421020508e+00 3.904592096805572510e-01 2.716340303421020508e+00 1.437181949615478516e+01
3.363929986953735352e+00 3.900659322738647461e+00 1.236874535679817200e-01 3.900659322738647461e+00 1.849101066589355469e+01 1.909385204315185547e+00 1.236874535679817200e-01 1.909385204315185547e+00 1.483674907684326172e+01
3.472169160842895508e+00 3.972484588623046875e+00 -3.178476542234420776e-02 3.972484588623046875e+00 1.944104194641113281e+01 1.427216172218322754e+00 -3.178476542234420776e-02 1.427216172218322754e+00 1.502221012115478516e+01
3.716959953308105469e+00 4.102413654327392578e+00 -4.986989498138427734e-01 4.102413654327392578e+00 2.161808586120605469e+01 -1.829466074705123901e-01 -4.986989498138427734e-01 -1.829466074705123901e-01 1.544697570800781250e+01
3.799010038375854492e+00 4.113202095031738281e+00 -6.342428922653198242e-01 4.113202095031738281e+00 2.218067550659179688e+01 -7.587822079658508301e-01 -6.342428922653198242e-01 -7.587822079658508301e-01 1.551717948913574219e+01
4.217017173767089844e+00 3.908295154571533203e+00 -1.414994359016418457e+00 3.908295154571533203e+00 2.344956588745117188e+01 -3.625030279159545898e+00 -1.414994359016418457e+00 -3.625030279159545898e+00 1.542092609405517578e+01
4.981695652008056641e+00 2.511730670928955078e+00 -2.090876817703247070e+00 2.511730670928955078e+00 2.298085021972656250e+01 -6.306939125061035156e+00 -2.090876817703247070e+00 -6.306939125061035156e+00 1.436852073669433594e+01
5.121785163879394531e+00 2.182842493057250977e+00 -2.143032312393188477e+00 2.182842493057250977e+00 2.293488693237304688e+01 -6.486764907836914062e+00 -2.143032312393188477e+00 -6.486764907836914062e+00 1.418446254730224609e+01
5.252334594726562500e+00 1.807309985160827637e+00 -2.160570621490478516e+00 1.807309985160827637e+00 2.290965843200683594e+01 -6.659284114837646484e+00 -2.160570621490478516e+00 -6.659284114837646484e+00 1.401566505432128906e+01
5.824063301086425781e+00 5.162461996078491211e-01 -2.069327831268310547e+00 5.162461996078491211e-01 2.287075805664062500e+01 -6.987448692321777344e+00 -2.069327831268310547e+00 -6.987448692321777344e+00 1.344112491607666016e+01
7.937489509582519531e+00 -4.864433765411376953e+00 -6.536951065063476562e-01 -4.864433765411376953e+00 2.346230697631835938e+01 -7.395447731018066406e+00 -6.536951065063476562e-01 -7.395447731018066406e+00 1.205725860595703125e+01
8.302668571472167969e+00 -5.528210639953613281e+00 -3.828128576278686523e-01 -5.528210639953613281e+00 2.362430000305175781e+01 -7.420414447784423828e+00 -3.828128576278686523e-01 -7.420414447784423828e+00 1.201344490051269531e+01
1.039454460144042969e+01 -8.831720352172851562e+00 1.194516181945800781e+00 -8.831720352172851562e+00 2.453877067565917969e+01 -7.767041206359863281e+00 1.194516181945800781e+00 -7.767041206359863281e+00 1.220053005218505859e+01
1.126289749145507812e+01 -1.002886486053466797e+01 1.855498790740966797e+00 -1.002886486053466797e+01 2.486043548583984375e+01 -7.929555416107177734e+00 1.855498790740966797e+00 -7.929555416107177734e+00 1.252039813995361328e+01
1.448755741119384766e+01 -1.501529693603515625e+01 4.238692283630371094e+00 -1.501529693603515625e+01 2.440526199340820312e+01 -8.182461738586425781e+00 4.238692283630371094e+00 -8.182461738586425781e+00 1.535704517364501953e+01
1.398288154602050781e+01 -1.582282543182373047e+01 4.143960952758789062e+00 -1.582282543182373047e+01 2.287114906311035156e+01 -7.223228454589843750e+00 4.143960952758789062e+00 -7.223228454589843750e+00 1.741031646728515625e+01
1.337514972686767578e+01 -1.585997867584228516e+01 3.987815380096435547e+00 -1.585997867584228516e+01 2.223223876953125000e+01 -6.681054592132568359e+00 3.987815380096435547e+00 -6.681054592132568359e+00 1.806067466735839844e+01
1.173195743560791016e+01 -1.556511306762695312e+01 3.418986558914184570e+00 -1.556511306762695312e+01 2.079258537292480469e+01 -5.308926105499267578e+00 3.418986558914184570e+00 -5.308926105499267578e+00 1.918803787231445312e+01
1.124005603790283203e+01 -1.539037990570068359e+01 3.296676635742187500e+00 -1.539037990570068359e+01 2.037151908874511719e+01 -4.942033290863037109e+00 3.296676635742187500e+00 -4.942033290863037109e+00 1.941700172424316406e+01
1.076478767395019531e+01 -1.516892719268798828e+01 3.144719362258911133e+00 -1.516892719268798828e+01 1.997869491577148438e+01 -4.569047451019287109e+00 3.144719362258911133e+00 -4.569047451019287109e+00 1.965541267395019531e+01
2.460000514984130859e+00 -9.827684402465820312e+00 5.065374374389648438e-01 -9.827684402465820312e+00 1.184241771697998047e+01 1.697113633155822754e+00 5.065374374389648438e-01 1.697113633155822754e+00 2.069496154785156250e+01
2.273925542831420898e+00 -9.442611694335937500e+00 3.882896006107330322e-01 -9.442611694335937500e+00 1.135981655120849609e+01 1.905090332031250000e+00 3.882896006107330322e-01 1.905090332031250000e+00 2.069536209106445312e+01
2.076700210571289062e+00 -4.923551082611083984e+00 -1.245578289031982422e+00 -4.923551082611083984e+00 6.134391784667968750e+00 3.597483634948730469e+00 -1.245578289031982422e+00 3.597483634948730469e+00 2.201475524902343750e+01