2.547449199482798576e-03 3.587923198938369751e-02 -1.732409466058015823e-03 -1.424211263656616211e-01 8.207990787923336029e-03 1.138901114463806152e-01 -1.051010489463806152e-01 -1.115653198212385178e-02 -4.052881523966789246e-02 3.436382487416267395e-02 8.318136632442474365e-02 7.330112904310226440e-02 -8.234935253858566284e-02 1.030431389808654785e-01 -8.120572566986083984e-02 -9.238488972187042236e-03 1.377545762807130814e-02 -7.216675579547882080e-02 2.116501480340957642e-01 -4.196400567889213562e-02 1.111652553081512451e-01 3.711542114615440369e-02 -9.421294182538986206e-02 3.538815304636955261e-02 3.577896207571029663e-02 -7.711767405271530151e-02 9.902758896350860596e-02 -4.339971020817756653e-02 -9.863164275884628296e-02 6.195845082402229309e-03 7.132446765899658203e-02 4.831000417470932007e-02 2.160035446286201477e-02 -1.647357270121574402e-02 9.955672174692153931e-02 1.014331132173538208e-01 2.489187940955162048e-02 3.290755301713943481e-02 -2.797668986022472382e-02 1.235281452536582947e-01 -6.005274876952171326e-02 -5.473827570676803589e-02 -1.336063593626022339e-01 -1.644169166684150696e-02 -6.243513152003288269e-02 -6.444881856441497803e-02 7.098507881164550781e-02 -8.438875526189804077e-02 -7.198575418442487717e-03 -2.075240388512611389e-02 3.461733693256974220e-03 -1.016094908118247986e-01 -4.193366691470146179e-02 -1.260935962200164795e-01 2.464762516319751740e-02 -1.124497782438993454e-02 -5.651850998401641846e-02 -8.309549093246459961e-02 -6.329645216464996338e-02 -6.894516199827194214e-02 1.090656891465187073e-01 -7.950057089328765869e-02 4.083734750747680664e-02 -1.061366870999336243e-01 1.256549656391143799e-01 -2.616406232118606567e-02 1.204160824418067932e-01 7.720354944467544556e-02 -1.114599034190177917e-01 -6.329079717397689819e-02 -7.150650024414062500e-02 1.166735887527465820e-01 4.694012179970741272e-02 -2.518035843968391418e-02 -7.579561322927474976e-02 -3.123787790536880493e-02 1.074906364083290100e-01 9.390080720186233521e-02 -1.286076158285140991e-01 -8.024362474679946899e-02 -4.681670665740966797e-02 1.124981120228767395e-01 5.782205983996391296e-02 -5.716848373413085938e-02 -5.590864270925521851e-02 7.672172505408525467e-03 2.483840100467205048e-02 1.309828013181686401e-01 -2.508425116539001465e-01 -5.121483653783798218e-02 1.182013377547264099e-01 4.329583793878555298e-02 7.254984974861145020e-02 -1.386662870645523071e-01 4.269214347004890442e-02 -9.726843982934951782e-02 -3.433348610997200012e-02 6.271949503570795059e-03 -3.754582256078720093e-02 -2.151262760162353516e-01 -1.488452851772308350e-01 2.914242818951606750e-02 -1.109173987060785294e-03 3.571005538105964661e-02 6.581099331378936768e-02 3.889513760805130005e-02 6.832450162619352341e-03 -3.111652098596096039e-02 -2.229249477386474609e-02 -6.510136276483535767e-02 -3.351690247654914856e-03 9.257154911756515503e-02 1.118537932634353638e-01 -1.664362698793411255e-01 5.704661458730697632e-02 1.165686827152967453e-02 7.098816335201263428e-03 8.395937830209732056e-02 4.140607640147209167e-02 1.362679600715637207e-01 5.128271505236625671e-02 4.147549718618392944e-02 1.075240597128868103e-01 1.085077598690986633e-01 -7.144581992179155350e-03 -6.325428374111652374e-03 -2.109502851963043213e-01 2.414266020059585571e-02 8.776409924030303955e-02 2.601519525051116943e-01 -1.404336653649806976e-02 1.300772652029991150e-02 -7.192919030785560608e-03 3.937799111008644104e-02 -2.279848791658878326e-02 -5.309688299894332886e-02 1.214280724525451660e-02 3.839223086833953857e-02 -5.591069906949996948e-02 -6.700963526964187622e-02 -4.560623317956924438e-03 1.643757894635200500e-02 5.767139047384262085e-02 1.547958515584468842e-02
-5.055853724479675293e-01 3.647305667400360107e-01 2.316024154424667358e-01 -1.363629937171936035e+00 8.966774493455886841e-02 1.285902857780456543e+00 -1.092940092086791992e+00 8.973356336355209351e-02 -6.583762764930725098e-01 2.731930911540985107e-01 8.081029057502746582e-01 8.823682069778442383e-01 -4.845948815345764160e-01 9.073686003684997559e-01 -8.158470988273620605e-01 -4.267471134662628174e-01 4.116151332855224609e-01 -9.670567512512207031e-01 2.635309457778930664e+00 -4.837160706520080566e-01 1.319749474525451660e+00 5.788484215736389160e-01 -1.013090372085571289e+00 4.962280988693237305e-01 6.246896982192993164e-01 -9.679494500160217285e-01 1.353750705718994141e+00 -1.485969126224517822e-01 -8.807566761970520020e-01 -6.234308704733848572e-02 1.467349231243133545e-01 1.106898546218872070e+00 6.562381237745285034e-02 2.109898924827575684e-01 8.847609162330627441e-01 1.525357484817504883e+00 7.882062196731567383e-01 5.126543641090393066e-01 -9.197680354118347168e-01 8.684585690498352051e-01 -1.080394625663757324e+00 -2.515757679939270020e-01 -1.577279925346374512e+00 -6.611083149909973145e-01 -4.905068874359130859e-01 -9.458199739456176758e-01 1.075395345687866211e+00 -1.240041136741638184e+00 -1.524252891540527344e-01 -4.254512786865234375e-01 -5.470772981643676758e-01 -1.454469084739685059e+00 -3.029294610023498535e-01 -1.130572319030761719e+00 5.392323732376098633e-01 -3.281956911087036133e-01 -7.747135758399963379e-01 -1.282864928245544434e+00 -4.252954721450805664e-01 -6.273713111877441406e-01 9.691028594970703125e-01 -4.649177193641662598e-01 3.022727966308593750e-01 -7.419000864028930664e-01 9.267171621322631836e-01 -1.981168836355209351e-01 1.748962163925170898e+00 9.034271240234375000e-01 -1.016513466835021973e+00 -8.392045497894287109e-01 -5.925688743591308594e-01 8.336586952209472656e-01 -1.129382848739624023e-02 -3.273744881153106689e-01 -5.975542664527893066e-01 -2.427841536700725555e-02 1.513691306114196777e+00 1.213729500770568848e+00 -1.641725063323974609e+00 -7.593964934349060059e-01 -7.419180870056152344e-01 1.227218985557556152e+00 5.125083327293395996e-01 -7.840831875801086426e-01 -4.828840494155883789e-02 -5.112130045890808105e-01 4.168272912502288818e-01 1.121036052703857422e+00 -2.904453516006469727e+00 -1.050976514816284180e+00 1.164245963096618652e+00 7.535029649734497070e-01 8.184824585914611816e-01 -1.389671564102172852e+00 5.491835474967956543e-01 -1.031245350837707520e+00 -7.676379084587097168e-01 -3.074319660663604736e-01 -2.205888479948043823e-01 -2.692678451538085938e+00 -1.543111443519592285e+00 2.982382178306579590e-01 -5.245025157928466797e-01 1.039982557296752930e+00 5.761791467666625977e-01 1.028753995895385742e+00 -5.329876542091369629e-01 -2.287659794092178345e-01 3.755806088447570801e-01 -5.618992447853088379e-01 -7.157530188560485840e-01 6.002981066703796387e-01 1.268442034721374512e+00 -1.699204683303833008e+00 9.133741855621337891e-01 -1.646200418472290039e-01 3.989031016826629639e-01 1.061428546905517578e+00 7.990279793739318848e-01 1.586929798126220703e+00 6.355613470077514648e-01 2.946335375308990479e-01 7.559881806373596191e-01 1.079818725585937500e+00 7.233542390167713165e-03 3.361187875270843506e-01 -2.554996967315673828e+00 -2.014356665313243866e-02 1.262477040290832520e+00 3.029529094696044922e+00 -3.424041345715522766e-02 4.675371646881103516e-01 -5.072853565216064453e-01 9.378994107246398926e-01 -3.387721776962280273e-01 -1.053118780255317688e-01 -4.137224256992340088e-01 5.999366044998168945e-01 -6.333944201469421387e-01 -8.912503719329833984e-01 3.993813097476959229e-01 2.965495288372039795e-01 8.410618901252746582e-01 -3.185088038444519043e-01
-5.758150815963745117e-01 4.086799621582031250e-01 2.771227657794952393e-01 -1.563282728195190430e+00 9.108030796051025391e-02 1.466828823089599609e+00 -1.232928872108459473e+00 1.017581000924110413e-01 -7.658977508544921875e-01 3.118568360805511475e-01 9.017399549484252930e-01 9.921131730079650879e-01 -5.434345602989196777e-01 1.025902152061462402e+00 -9.131721258163452148e-01 -4.510316848754882812e-01 4.415227174758911133e-01 -1.084253311157226562e+00 3.021478414535522461e+00 -5.542511940002441406e-01 1.493928790092468262e+00 6.341261267662048340e-01 -1.115509152412414551e+00 5.533420443534851074e-01 7.830341458320617676e-01 -1.034339427947998047e+00 1.534894704818725586e+00 -1.564670652151107788e-01 -1.002961158752441406e+00 -7.212253659963607788e-02 1.480806469917297363e-01 1.234041213989257812e+00 6.422667950391769409e-02 2.092744410037994385e-01 1.043862342834472656e+00 1.749036788940429688e+00 8.697975873947143555e-01 5.703694820404052734e-01 -1.028029441833496094e+00 9.817959070205688477e-01 -1.247897863388061523e+00 -3.224250972270965576e-01 -1.822263360023498535e+00 -7.792870402336120605e-01 -5.662484765052795410e-01 -1.051112771034240723e+00 1.203291773796081543e+00 -1.381939768791198730e+00 -1.830090880393981934e-01 -4.830563366413116455e-01 -6.406675577163696289e-01 -1.671006917953491211e+00 -3.254801034927368164e-01 -1.275499701499938965e+00 5.857034921646118164e-01 -3.695868551731109619e-01 -8.732999563217163086e-01 -1.433319211006164551e+00 -4.583763182163238525e-01 -7.001531124114990234e-01 1.105873227119445801e+00 -5.170725584030151367e-01 3.277015089988708496e-01 -8.072133064270019531e-01 1.008904099464416504e+00 -2.252641320228576660e-01 2.018597841262817383e+00 1.037402629852294922e+00 -1.166405677795410156e+00 -9.514928460121154785e-01 -6.378850936889648438e-01 9.059863686561584473e-01 -2.583444677293300629e-02 -3.659251034259796143e-01 -6.486724019050598145e-01 -5.011697486042976379e-02 1.730123281478881836e+00 1.401197314262390137e+00 -1.898322701454162598e+00 -8.490400314331054688e-01 -8.621968626976013184e-01 1.399924159049987793e+00 5.855323076248168945e-01 -9.036415219306945801e-01 -3.571108356118202209e-02 -6.072534918785095215e-01 4.649295508861541748e-01 1.266306996345520020e+00 -3.299356460571289062e+00 -1.236972212791442871e+00 1.306560635566711426e+00 8.749495744705200195e-01 9.288923144340515137e-01 -1.551333308219909668e+00 6.323921680450439453e-01 -1.142392635345458984e+00 -8.713166117668151855e-01 -3.439740240573883057e-01 -2.339040786027908325e-01 -3.087982654571533203e+00 -1.747132658958435059e+00 3.502408564090728760e-01 -5.791431069374084473e-01 1.169805765151977539e+00 6.382445096969604492e-01 1.157543659210205078e+00 -6.132451891899108887e-01 -2.586745917797088623e-01 4.255901277065277100e-01 -6.312557458877563477e-01 -8.089580535888671875e-01 6.875490546226501465e-01 1.443810343742370605e+00 -1.958657860755920410e+00 1.021527171134948730e+00 -1.853698641061782837e-01 4.440799355506896973e-01 1.240200519561767578e+00 9.050566554069519043e-01 1.821829319000244141e+00 7.244634032249450684e-01 3.277488350868225098e-01 8.448326587677001953e-01 1.185595393180847168e+00 -4.811048507690429688e-03 3.663061261177062988e-01 -2.930020570755004883e+00 -4.589110985398292542e-02 1.477559089660644531e+00 3.424234151840209961e+00 -4.866995662450790405e-02 5.667158961296081543e-01 -5.679078698158264160e-01 1.050129652023315430e+00 -3.735448122024536133e-01 -1.068622544407844543e-01 -4.712590873241424561e-01 6.823199391365051270e-01 -7.043116092681884766e-01 -9.936188459396362305e-01 4.468063414096832275e-01 3.421295285224914551e-01 9.444382786750793457e-01 -3.561523258686065674e-01
-7.318146824836730957e-01 5.017081499099731445e-01 4.117143750190734863e-01 -2.005534648895263672e+00 8.799601346254348755e-02 1.845167279243469238e+00 -1.502870559692382812e+00 1.414286792278289795e-01 -1.015951395034790039e+00 3.666609525680541992e-01 1.056224226951599121e+00 1.228073596954345703e+00 -6.482347846031188965e-01 1.237486958503723145e+00 -1.111151695251464844e+00 -4.794177114963531494e-01 5.008504390716552734e-01 -1.328652620315551758e+00 3.828572988510131836e+00 -7.014077901840209961e-01 1.835022687911987305e+00 7.460920214653015137e-01 -1.320705413818359375e+00 6.793297529220581055e-01 1.179300308227539062e+00 -1.124384641647338867e+00 1.933710932731628418e+00 -1.601689457893371582e-01 -1.268532514572143555e+00 -9.661538153886795044e-02 1.453007608652114868e-01 1.492909669876098633e+00 5.062759667634963989e-02 1.779774278402328491e-01 1.412970900535583496e+00 2.249556064605712891e+00 1.027618050575256348e+00 6.928676366806030273e-01 -1.251227498054504395e+00 1.226371526718139648e+00 -1.631519913673400879e+00 -5.006138682365417480e-01 -2.383696794509887695e+00 -1.070325136184692383e+00 -7.394930124282836914e-01 -1.263950824737548828e+00 1.475482702255249023e+00 -1.675801515579223633e+00 -2.686247527599334717e-01 -6.144520640373229980e-01 -8.716904520988464355e-01 -2.119850158691406250e+00 -3.324899375438690186e-01 -1.541561603546142578e+00 6.716040968894958496e-01 -4.545880556106567383e-01 -1.086261868476867676e+00 -1.749918699264526367e+00 -5.163973569869995117e-01 -8.645222187042236328e-01 1.395873069763183594e+00 -5.913486480712890625e-01 3.657554090023040771e-01 -8.939186334609985352e-01 1.096616268157958984e+00 -2.859982252120971680e-01 2.591450452804565430e+00 1.313344836235046387e+00 -1.472602486610412598e+00 -1.157187819480895996e+00 -6.793081164360046387e-01 9.868229031562805176e-01 -6.964964419603347778e-02 -4.464407265186309814e-01 -7.162435650825500488e-01 -1.070293784141540527e-01 2.188644647598266602e+00 1.769852399826049805e+00 -2.443620443344116211e+00 -1.000327348709106445e+00 -1.134750843048095703e+00 1.769779920578002930e+00 7.385473847389221191e-01 -1.160535931587219238e+00 1.487794704735279083e-02 -8.502860069274902344e-01 5.609911084175109863e-01 1.542688727378845215e+00 -4.074640274047851562e+00 -1.668599843978881836e+00 1.570057153701782227e+00 1.157576560974121094e+00 1.149768590927124023e+00 -1.834122300148010254e+00 7.913434505462646484e-01 -1.316301584243774414e+00 -1.097983479499816895e+00 -4.086917936801910400e-01 -2.507082819938659668e-01 -3.910094976425170898e+00 -2.153771162033081055e+00 4.664089381694793701e-01 -6.819707751274108887e-01 1.434198975563049316e+00 7.669344544410705566e-01 1.434486985206604004e+00 -8.142473697662353516e-01 -3.313370645046234131e-01 5.314450263977050781e-01 -7.857662439346313477e-01 -1.000110864639282227e+00 8.560827970504760742e-01 1.813712358474731445e+00 -2.496195793151855469e+00 1.245096921920776367e+00 -2.234566509723663330e-01 5.256189107894897461e-01 1.615039587020874023e+00 1.136555194854736328e+00 2.309566020965576172e+00 9.222794771194458008e-01 3.970827460289001465e-01 1.034382700920104980e+00 1.398000478744506836e+00 -4.690309613943099976e-02 4.118969440460205078e-01 -3.705139875411987305e+00 -1.192493140697479248e-01 1.969987154006958008e+00 4.167269229888916016e+00 -8.813125640153884888e-02 8.110437393188476562e-01 -6.934970021247863770e-01 1.283259272575378418e+00 -4.416389465332031250e-01 -1.084985062479972839e-01 -5.915563702583312988e-01 8.735997080802917480e-01 -8.524817228317260742e-01 -1.207464694976806641e+00 5.454580187797546387e-01 4.453557133674621582e-01 1.165634870529174805e+00 -4.227485358715057373e-01
-8.810842037200927734e-01 5.801818370819091797e-01 6.197505593299865723e-01 -2.355525016784667969e+00 8.960758149623870850e-02 2.091288805007934570e+00 -1.623078942298889160e+00 2.387274652719497681e-01 -1.246188640594482422e+00 3.091402053833007812e-01 1.056663274765014648e+00 1.435411572456359863e+00 -6.639252305030822754e-01 1.262433886528015137e+00 -1.256337761878967285e+00 -4.850211739540100098e-01 5.805541276931762695e-01 -1.521973371505737305e+00 4.317130565643310547e+00 -7.969679832458496094e-01 2.000862360000610352e+00 8.521793484687805176e-01 -1.489832997322082520e+00 8.070503473281860352e-01 1.539491891860961914e+00 -1.150583148002624512e+00 2.279784917831420898e+00 -1.244912818074226379e-01 -1.472563982009887695e+00 -1.275560408830642700e-01 1.392067372798919678e-01 1.704828143119812012e+00 1.548009924590587616e-02 1.290416270494461060e-01 1.709426879882812500e+00 2.680364370346069336e+00 1.142693519592285156e+00 8.096029162406921387e-01 -1.435631632804870605e+00 1.406486153602600098e+00 -1.981565833091735840e+00 -6.442275047302246094e-01 -2.867803096771240234e+00 -1.371516585350036621e+00 -8.798788785934448242e-01 -1.433261036872863770e+00 1.721337199211120605e+00 -1.924654483795166016e+00 -3.859622180461883545e-01 -7.485438585281372070e-01 -1.135966420173645020e+00 -2.379481554031372070e+00 -2.347396761178970337e-01 -1.596000552177429199e+00 7.403240203857421875e-01 -5.216197967529296875e-01 -1.271897077560424805e+00 -2.022586345672607422e+00 -5.492231845855712891e-01 -1.037046313285827637e+00 1.590665578842163086e+00 -5.341976284980773926e-01 3.681871592998504639e-01 -8.517150282859802246e-01 9.494621753692626953e-01 -3.403421044349670410e-01 2.953059911727905273e+00 1.450092554092407227e+00 -1.607014656066894531e+00 -1.208359479904174805e+00 -5.956305265426635742e-01 8.713865280151367188e-01 -1.401899307966232300e-01 -5.141826272010803223e-01 -6.773602962493896484e-01 -9.895920008420944214e-02 2.509791851043701172e+00 1.901434302330017090e+00 -2.765497207641601562e+00 -9.997956752777099609e-01 -1.358610153198242188e+00 2.036188364028930664e+00 8.301120996475219727e-01 -1.337474107742309570e+00 1.139579862356185913e-01 -1.136469841003417969e+00 6.319787502288818359e-01 1.642267584800720215e+00 -4.440804004669189453e+00 -2.028699874877929688e+00 1.659592151641845703e+00 1.414103746414184570e+00 1.269825220108032227e+00 -1.896346569061279297e+00 8.341543674468994141e-01 -1.296223282814025879e+00 -1.301006078720092773e+00 -4.338628947734832764e-01 -2.486663162708282471e-01 -4.389657020568847656e+00 -2.367259502410888672e+00 5.459516644477844238e-01 -7.500993609428405762e-01 1.641304492950439453e+00 8.789805173873901367e-01 1.688495039939880371e+00 -1.063842415809631348e+00 -4.138566255569458008e-01 6.232421398162841797e-01 -9.413189888000488281e-01 -1.148147344589233398e+00 8.944298028945922852e-01 2.068803787231445312e+00 -2.783435821533203125e+00 1.425537467002868652e+00 -2.421269714832305908e-01 5.622879862785339355e-01 1.798670887947082520e+00 1.338954567909240723e+00 2.591475725173950195e+00 1.097045063972473145e+00 4.524118602275848389e-01 1.189849019050598145e+00 1.574567914009094238e+00 -1.122080907225608826e-01 4.186280667781829834e-01 -4.139496803283691406e+00 -1.823426485061645508e-01 2.359153985977172852e+00 4.438348293304443359e+00 -1.235790550708770752e-01 1.033359408378601074e+00 -7.976416349411010742e-01 1.482882857322692871e+00 -4.914720654487609863e-01 -1.112141013145446777e-01 -6.908878684043884277e-01 1.072951316833496094e+00 -9.800279736518859863e-01 -1.392863392829895020e+00 6.317190527915954590e-01 5.406655073165893555e-01 1.363133668899536133e+00 -4.485171437263488770e-01
-1.096036672592163086e+00 5.887127518653869629e-01 1.540418982505798340e+00 -1.565980434417724609e+00 3.424930870532989502e-01 9.329423308372497559e-01 -4.878869056701660156e-01 1.253396987915039062e+00 -1.176030874252319336e+00 -9.163062572479248047e-01 -1.180779188871383667e-01 1.560227751731872559e+00 1.627354137599468231e-02 -3.971146345138549805e-01 -1.223876595497131348e+00 -6.627964973449707031e-01 1.218826889991760254e+00 -1.435367822647094727e+00 1.713107109069824219e+00 -3.163352012634277344e-01 6.574054360389709473e-01 1.146955847740173340e+00 -1.706943750381469727e+00 1.145524263381958008e+00 6.732418537139892578e-01 -1.594201326370239258e+00 2.161302804946899414e+00 3.392185270786285400e-01 -9.613134264945983887e-01 -2.412569075822830200e-01 2.323377579450607300e-01 1.859046101570129395e+00 -2.896311879158020020e-01 3.499549329280853271e-01 6.558185219764709473e-01 2.278256177902221680e+00 1.113473892211914062e+00 1.156146049499511719e+00 -1.516785383224487305e+00 7.581931948661804199e-01 -1.917411088943481445e+00 1.929530799388885498e-01 -2.126497268676757812e+00 -1.427425742149353027e+00 -4.206911325454711914e-01 -1.481829762458801270e+00 2.147363901138305664e+00 -2.210186719894409180e+00 -8.108041286468505859e-01 -9.904954433441162109e-01 -1.732353448867797852e+00 -9.224691987037658691e-01 5.439765453338623047e-01 2.606168091297149658e-01 1.008263349533081055e+00 -5.262241363525390625e-01 -1.300312399864196777e+00 -2.202023983001708984e+00 -5.210927128791809082e-01 -1.493856787681579590e+00 7.665024995803833008e-01 7.367378473281860352e-01 2.215560972690582275e-01 -1.590114235877990723e-01 -9.325972795486450195e-01 -3.077800869941711426e-01 1.395143389701843262e+00 1.104972809553146362e-01 9.676450490951538086e-02 1.227341890335083008e-01 2.031439095735549927e-01 -6.468387246131896973e-01 -5.019940733909606934e-01 -5.838384628295898438e-01 1.470645368099212646e-01 8.262060880661010742e-01 1.739966392517089844e+00 -3.186296522617340088e-01 -6.198359727859497070e-01 2.016480416059494019e-01 -9.653161168098449707e-01 1.211836099624633789e+00 1.647480726242065430e-01 -5.893385410308837891e-01 7.001726627349853516e-01 -1.878422379493713379e+00 6.529461145401000977e-01 3.520899713039398193e-01 -1.375705838203430176e+00 -1.332194089889526367e+00 2.747223973274230957e-01 1.230197906494140625e+00 3.625302016735076904e-01 -3.585161864757537842e-01 -2.788202166557312012e-01 9.208200871944427490e-02 -1.371558189392089844e+00 -1.002360060811042786e-01 -1.908576339483261108e-01 -1.630038380622863770e+00 -8.704454898834228516e-01 1.534249335527420044e-01 -6.877742409706115723e-01 1.466747641563415527e+00 1.053133726119995117e+00 2.128516197204589844e+00 -1.859629154205322266e+00 -6.364057064056396484e-01 7.219658493995666504e-01 -1.257987856864929199e+00 -9.759733676910400391e-01 -3.449222445487976074e-01 1.337743043899536133e+00 -4.951379597187042236e-01 1.352062582969665527e+00 -7.370685040950775146e-02 1.564094722270965576e-01 -1.763231903314590454e-01 1.372008681297302246e+00 8.936214447021484375e-01 1.023667812347412109e+00 4.253669381141662598e-01 1.099416136741638184e+00 1.825908184051513672e+00 -3.649650514125823975e-01 2.180573344230651855e-01 -1.292718410491943359e+00 1.216409578919410706e-01 1.371961355209350586e+00 9.611797332763671875e-01 1.823102533817291260e-01 6.546486616134643555e-01 -8.569292426109313965e-01 1.665018320083618164e+00 -4.414800405502319336e-01 -2.051565647125244141e-01 -6.961827874183654785e-01 1.493860960006713867e+00 -1.079004645347595215e+00 -1.557943582534790039e+00 7.134534120559692383e-01 5.426992177963256836e-01 1.583574414253234863e+00 -1.702795475721359253e-01
-1.059011816978454590e+00 5.255067944526672363e-01 1.741384148597717285e+00 -9.025729894638061523e-01 4.524205923080444336e-01 2.462782859802246094e-01 1.184250228106975555e-02 1.664198637008666992e+00 -9.394019842147827148e-01 -1.393507719039916992e+00 -5.521022677421569824e-01 1.451706171035766602e+00 2.533724606037139893e-01 -1.030663847923278809e+00 -1.138459324836730957e+00 -7.985605597496032715e-01 1.470207333564758301e+00 -1.254670143127441406e+00 4.305225312709808350e-01 3.839685814455151558e-03 3.358066827058792114e-02 1.203764319419860840e+00 -1.709939002990722656e+00 1.201449871063232422e+00 -6.324348598718643188e-02 -1.909476161003112793e+00 1.827950119972229004e+00 4.921287298202514648e-01 -5.357881188392639160e-01 -2.741073966026306152e-01 3.433492481708526611e-01 1.747926115989685059e+00 -4.584827423095703125e-01 5.080145597457885742e-01 -1.515547186136245728e-01 1.726809620857238770e+00 9.852719902992248535e-01 1.293859481811523438e+00 -1.360430479049682617e+00 2.927962243556976318e-01 -1.602218508720397949e+00 7.307415008544921875e-01 -1.387235760688781738e+00 -1.143571257591247559e+00 -8.517294377088546753e-02 -1.340740919113159180e+00 2.197133779525756836e+00 -2.152578592300415039e+00 -8.957513570785522461e-01 -9.615021347999572754e-01 -1.725015997886657715e+00 -2.417963296175003052e-01 7.042247056961059570e-01 9.633184075355529785e-01 1.081277012825012207e+00 -4.815167486667633057e-01 -1.116323232650756836e+00 -2.024342775344848633e+00 -4.940066635608673096e-01 -1.589048862457275391e+00 2.600563168525695801e-01 1.145412206649780273e+00 1.726218163967132568e-01 -1.619795075384899974e-04 -1.518755435943603516e+00 -2.342671155929565430e-01 6.770630478858947754e-01 -4.643520712852478027e-01 7.764829993247985840e-01 6.892325878143310547e-01 3.955246508121490479e-01 -1.100831747055053711e+00 -6.215904951095581055e-01 -5.699385404586791992e-01 4.494808018207550049e-01 1.158208489418029785e+00 1.279376983642578125e+00 -1.218799710273742676e+00 3.892737925052642822e-01 5.884211659431457520e-01 -6.324585080146789551e-01 6.589758396148681641e-01 -1.894404441118240356e-01 -1.378728449344635010e-01 9.070616364479064941e-01 -1.969070315361022949e+00 6.333938837051391602e-01 -1.036463156342506409e-01 -8.013100363314151764e-03 -7.947326898574829102e-01 -3.280296027660369873e-01 9.086279273033142090e-01 -1.490139514207839966e-01 2.259089648723602295e-01 -7.446573376655578613e-01 5.594335198402404785e-01 -1.168765544891357422e+00 1.215242296457290649e-01 -1.868060827255249023e-01 -3.500732183456420898e-01 -1.585470885038375854e-01 -4.635442420840263367e-02 -5.971531271934509277e-01 1.118265986442565918e+00 1.075185537338256836e+00 2.167610406875610352e+00 -1.988049149513244629e+00 -6.643443107604980469e-01 7.019497752189636230e-01 -1.272774338722229004e+00 -7.034677863121032715e-01 -7.977002263069152832e-01 9.012508988380432129e-01 5.444331765174865723e-01 1.089790463447570801e+00 6.773674488067626953e-02 -1.508697718381881714e-01 -1.045830249786376953e+00 1.232318043708801270e+00 8.226965367794036865e-02 7.979043722152709961e-01 3.582626879215240479e-01 8.872666954994201660e-01 1.832722544670104980e+00 -4.303425550460815430e-01 1.489085406064987183e-01 3.685830906033515930e-02 2.586807608604431152e-01 7.212145328521728516e-01 -4.468654692173004150e-01 4.189330041408538818e-01 3.302289247512817383e-01 -7.825291752815246582e-01 1.561907291412353516e+00 -3.543695211410522461e-01 -2.680447399616241455e-01 -6.094178557395935059e-01 1.525632023811340332e+00 -9.898912310600280762e-01 -1.447843313217163086e+00 6.553557515144348145e-01 4.120943844318389893e-01 1.527972340583801270e+00 -1.722947880625724792e-02
-9.618508219718933105e-01 4.453330934047698975e-01 1.806377530097961426e+00 -2.570028603076934814e-01 5.306253433227539062e-01 -3.453917503356933594e-01 3.948026895523071289e-01 1.983089923858642578e+00 -6.724052429199218750e-01 -1.770989894866943359e+00 -8.800002336502075195e-01 1.308594465255737305e+00 4.131572842597961426e-01 -1.486503481864929199e+00 -1.032038331031799316e+00 -9.385514855384826660e-01 1.655595660209655762e+00 -1.062633991241455078e+00 -5.979594588279724121e-01 3.084583580493927002e-01 -4.671499431133270264e-01 1.216019749641418457e+00 -1.689194321632385254e+00 1.203899145126342773e+00 -7.379904985427856445e-01 -2.194562196731567383e+00 1.473759531974792480e+00 5.531004071235656738e-01 -1.178125813603401184e-01 -3.138355612754821777e-01 5.038241744041442871e-01 1.554637193679809570e+00 -6.502474546432495117e-01 6.297038197517395020e-01 -9.259664416313171387e-01 1.169117689132690430e+00 7.987533807754516602e-01 1.441992998123168945e+00 -1.105698347091674805e+00 -1.374275386333465576e-01 -1.266451001167297363e+00 1.189236640930175781e+00 -6.949013471603393555e-01 -8.209018707275390625e-01 1.998168975114822388e-01 -1.109386920928955078e+00 2.200329065322875977e+00 -2.002866506576538086e+00 -9.253225922584533691e-01 -8.546969890594482422e-01 -1.576810956001281738e+00 2.949497699737548828e-01 7.659923434257507324e-01 1.464673757553100586e+00 1.069021105766296387e+00 -4.234118759632110596e-01 -8.526853322982788086e-01 -1.727157711982727051e+00 -4.655239880084991455e-01 -1.641513705253601074e+00 -1.929741650819778442e-01 1.372093439102172852e+00 1.152239963412284851e-01 8.608568459749221802e-02 -1.922283887863159180e+00 -1.466079205274581909e-01 1.292802244424819946e-01 -8.900157213211059570e-01 1.239170551300048828e+00 1.150084853172302246e+00 5.022614598274230957e-01 -1.398320317268371582e+00 -7.139275074005126953e-01 -5.409750342369079590e-01 6.761040091514587402e-01 1.387333393096923828e+00 8.907994031906127930e-01 -1.891688823699951172e+00 1.159541964530944824e+00 8.302920460700988770e-01 -3.110145628452301025e-01 1.749548465013504028e-01 -4.692680239677429199e-01 2.550704181194305420e-01 1.077512860298156738e+00 -1.956993222236633301e+00 6.115677952766418457e-01 -4.120414257049560547e-01 1.090578794479370117e+00 -3.138504624366760254e-01 -8.104205131530761719e-01 5.639920830726623535e-01 -6.099659800529479980e-01 6.652894616127014160e-01 -1.115988969802856445e+00 8.907721042633056641e-01 -8.617160916328430176e-01 3.613958358764648438e-01 -1.976021528244018555e-01 6.439560055732727051e-01 4.078494906425476074e-01 -2.081421315670013428e-01 -4.753229618072509766e-01 6.504073739051818848e-01 1.088050842285156250e+00 2.157761573791503906e+00 -1.999576926231384277e+00 -6.566664576530456543e-01 6.620616912841796875e-01 -1.226034760475158691e+00 -3.524118959903717041e-01 -1.114690065383911133e+00 5.211909413337707520e-01 1.349409699440002441e+00 7.156897783279418945e-01 2.497898936271667480e-01 -5.172977447509765625e-01 -1.714146375656127930e+00 1.066819190979003906e+00 -5.606507062911987305e-01 5.232848525047302246e-01 2.730804979801177979e-01 6.194764971733093262e-01 1.798804640769958496e+00 -4.728773236274719238e-01 1.206752508878707886e-01 1.088237524032592773e+00 3.513248264789581299e-01 1.528279334306716919e-01 -1.535297393798828125e+00 6.585027575492858887e-01 3.684802353382110596e-02 -6.548975706100463867e-01 1.352391600608825684e+00 -2.363255321979522705e-01 -3.399430513381958008e-01 -4.924789071083068848e-01 1.493723630905151367e+00 -8.203964233398437500e-01 -1.232469201087951660e+00 5.404222607612609863e-01 2.111235857009887695e-01 1.415136814117431641e+00 1.189958080649375916e-01