6.032444953918457031e+00 -1.681845188140869141e-01 -1.960510611534118652e-01 -1.681845188140869141e-01 2.578439712524414062e+00 2.499979734420776367e-01 -1.960510611534118652e-01 2.499979734420776367e-01 2.864996910095214844e+00
2.105093574523925781e+01 4.819400310516357422e+00 1.481296658515930176e+00 4.819400310516357422e+00 3.235923290252685547e+00 4.863518238067626953e+00 1.481296658515930176e+00 4.863518238067626953e+00 9.454400062561035156e+00
2.344895935058593750e+01 5.573365688323974609e+00 1.665577411651611328e+00 5.573365688323974609e+00 3.358678102493286133e+00 5.554781436920166016e+00 1.665577411651611328e+00 5.554781436920166016e+00 1.048223686218261719e+01
2.805416297912597656e+01 7.241965770721435547e+00 2.020035982131958008e+00 7.241965770721435547e+00 3.077456951141357422e+00 7.165003299713134766e+00 2.020035982131958008e+00 7.165003299713134766e+00 1.225153923034667969e+01
2.943004989624023438e+01 8.649137496948242188e+00 2.301307201385498047e+00 8.649137496948242188e+00 8.964841365814208984e-01 8.834008216857910156e+00 2.301307201385498047e+00 8.834008216857910156e+00 1.199765491485595703e+01
-1.740542769432067871e+00 7.263488292694091797e+00 2.707142114639282227e+00 7.263488292694091797e+00 -2.173386955261230469e+01 1.178637695312500000e+01 2.707142114639282227e+00 1.178637695312500000e+01 -9.228254318237304688e+00
-1.483990859985351562e+01 5.527070045471191406e+00 2.489157199859619141e+00 5.527070045471191406e+00 -2.904766654968261719e+01 1.152111053466796875e+01 2.489157199859619141e+00 1.152111053466796875e+01 -1.722751617431640625e+01
-2.447075843811035156e+01 3.725266218185424805e+00 2.030164718627929688e+00 3.725266218185424805e+00 -3.345796966552734375e+01 1.065266704559326172e+01 2.030164718627929688e+00 1.065266704559326172e+01 -2.266729545593261719e+01
-2.642253494262695312e+01 3.221256256103515625e+00 1.858491897583007812e+00 3.221256256103515625e+00 -3.406890487670898438e+01 1.030509757995605469e+01 1.858491897583007812e+00 1.030509757995605469e+01 -2.364868354797363281e+01
-3.000489616394042969e+01 1.767506599426269531e+00 1.255096316337585449e+00 1.767506599426269531e+00 -3.404138946533203125e+01 9.034938812255859375e+00 1.255096316337585449e+00 9.034938812255859375e+00 -2.497221565246582031e+01
-3.045100021362304688e+01 1.305170655250549316e+00 1.028499126434326172e+00 1.305170655250549316e+00 -3.340015411376953125e+01 8.541203498840332031e+00 1.028499126434326172e+00 8.541203498840332031e+00 -2.487328338623046875e+01
-3.053564071655273438e+01 1.078599214553833008e+00 9.096847772598266602e-01 1.078599214553833008e+00 -3.295739364624023438e+01 8.281056404113769531e+00 9.096847772598266602e-01 8.281056404113769531e+00 -2.472247886657714844e+01
-2.919282913208007812e+01 -2.154944688081741333e-01 1.477366387844085693e-01 -2.154944688081741333e-01 -2.864537429809570312e+01 6.559559345245361328e+00 1.477366387844085693e-01 6.559559345245361328e+00 -2.241543006896972656e+01
-2.293211746215820312e+01 -1.731478214263916016e+00 -9.945099949836730957e-01 -1.731478214263916016e+00 -1.862490653991699219e+01 3.904182434082031250e+00 -9.945099949836730957e-01 3.904182434082031250e+00 -1.572815799713134766e+01
-1.818467330932617188e+01 -2.397957801818847656e+00 -1.620123624801635742e+00 -2.397957801818847656e+00 -1.193168544769287109e+01 2.459734201431274414e+00 -1.620123624801635742e+00 2.459734201431274414e+00 -1.093269062042236328e+01
-2.964448690414428711e+00 -3.860479593276977539e+00 -3.336485385894775391e+00 -3.860479593276977539e+00 8.500476837158203125e+00 -1.438481092453002930e+00 -3.336485385894775391e+00 -1.438481092453002930e+00 4.535909175872802734e+00
2.550508117675781250e+01 -6.463820934295654297e+00 -6.121151924133300781e+00 -6.463820934295654297e+00 4.385826873779296875e+01 -9.743285179138183594e+00 -6.121151924133300781e+00 -9.743285179138183594e+00 3.223167419433593750e+01
2.699112892150878906e+01 -6.633739471435546875e+00 -6.187953948974609375e+00 -6.633739471435546875e+00 4.547505187988281250e+01 -1.059997653961181641e+01 -6.187953948974609375e+00 -1.059997653961181641e+01 3.320780944824218750e+01
2.727652549743652344e+01 -6.645576000213623047e+00 -5.691056728363037109e+00 -6.645576000213623047e+00 4.550770568847656250e+01 -1.352254867553710938e+01 -5.691056728363037109e+00 -1.352254867553710938e+01 3.079441642761230469e+01
2.158449554443359375e+01 -5.845754146575927734e+00 -4.608678817749023438e+00 -5.845754146575927734e+00 3.926707458496093750e+01 -1.494956111907958984e+01 -4.608678817749023438e+00 -1.494956111907958984e+01 2.292638969421386719e+01
1.884955978393554688e+01 -5.449964523315429688e+00 -4.165579319000244141e+00 -5.449964523315429688e+00 3.629476165771484375e+01 -1.525873661041259766e+01 -4.165579319000244141e+00 -1.525873661041259766e+01 1.949658203125000000e+01
1.584419345855712891e+01 -5.007369518280029297e+00 -3.707844018936157227e+00 -5.007369518280029297e+00 3.301929855346679688e+01 -1.549278163909912109e+01 -3.707844018936157227e+00 -1.549278163909912109e+01 1.582159137725830078e+01
1.105623149871826172e+01 -4.269268512725830078e+00 -3.018263101577758789e+00 -4.269268512725830078e+00 2.770988082885742188e+01 -1.570866966247558594e+01 -3.018263101577758789e+00 -1.570866966247558594e+01 1.004515457153320312e+01
7.813150882720947266e+00 -3.746505022048950195e+00 -2.573209762573242188e+00 -3.746505022048950195e+00 2.401401710510253906e+01 -1.576209163665771484e+01 -2.573209762573242188e+00 -1.576209163665771484e+01 6.151020050048828125e+00
6.211233139038085938e+00 -3.478859424591064453e+00 -2.359143257141113281e+00 -3.478859424591064453e+00 2.215346145629882812e+01 -1.576673126220703125e+01 -2.359143257141113281e+00 -1.576673126220703125e+01 4.223087787628173828e+00
4.632513999938964844e+00 -3.209667682647705078e+00 -2.151638269424438477e+00 -3.209667682647705078e+00 2.029679107666015625e+01 -1.575981140136718750e+01 -2.151638269424438477e+00 -1.575981140136718750e+01 2.320456266403198242e+00
3.088425874710083008e+00 -2.937294244766235352e+00 -1.950387954711914062e+00 -2.937294244766235352e+00 1.845648002624511719e+01 -1.574039077758789062e+01 -1.950387954711914062e+00 -1.574039077758789062e+01 4.516406953334808350e-01
1.583978414535522461e+00 -2.662081956863403320e+00 -1.756283044815063477e+00 -2.662081956863403320e+00 1.663049888610839844e+01 -1.570940303802490234e+01 -1.756283044815063477e+00 -1.570940303802490234e+01 -1.378156065940856934e+00
-1.008703041076660156e+01 8.549506962299346924e-02 -2.579177320003509521e-01 8.549506962299346924e-02 5.396665930747985840e-01 -1.486227130889892578e+01 -2.579177320003509521e-01 -1.486227130889892578e+01 -1.627161979675292969e+01
-1.391366863250732422e+01 1.949645638465881348e+00 4.052608907222747803e-01 1.949645638465881348e+00 -7.195343017578125000e+00 -1.387950038909912109e+01 4.052608907222747803e-01 -1.387950038909912109e+01 -2.206194686889648438e+01
-1.460029125213623047e+01 3.226135492324829102e+00 7.733470201492309570e-01 3.226135492324829102e+00 -1.069750308990478516e+01 -1.302821254730224609e+01 7.733470201492309570e-01 -1.302821254730224609e+01 -2.381488990783691406e+01
-1.446420288085937500e+01 3.717002630233764648e+00 9.054499268531799316e-01 3.717002630233764648e+00 -1.162687778472900391e+01 -1.264604187011718750e+01 9.054499268531799316e-01 -1.264604187011718750e+01 -2.399430847167968750e+01
-1.904741764068603516e+00 8.051725387573242188e+00 2.514814853668212891e+00 8.051725387573242188e+00 -4.405054092407226562e+00 -4.571172714233398438e+00 2.514814853668212891e+00 -4.571172714233398438e+00 -8.711867332458496094e+00
8.130428314208984375e+00 7.953399181365966797e+00 1.636485099792480469e+00 7.953399181365966797e+00 8.338835716247558594e+00 2.020212411880493164e+00 1.636485099792480469e+00 2.020212411880493164e+00 4.945760250091552734e+00
8.986863136291503906e+00 7.853045463562011719e+00 1.441512703895568848e+00 7.853045463562011719e+00 9.326822280883789062e+00 2.510980606079101562e+00 1.441512703895568848e+00 2.510980606079101562e+00 5.925429344177246094e+00
1.582666587829589844e+01 6.657232284545898438e+00 -4.893647432327270508e-01 6.657232284545898438e+00 1.631650733947753906e+01 5.853405952453613281e+00 -4.893647432327270508e-01 5.853405952453613281e+00 1.275345039367675781e+01
1.807923316955566406e+01 6.136362075805664062e+00 -1.181320309638977051e+00 6.136362075805664062e+00 1.830965423583984375e+01 6.761594772338867188e+00 -1.181320309638977051e+00 6.761594772338867188e+00 1.468513965606689453e+01
2.046364784240722656e+01 5.532342433929443359e+00 -1.920178055763244629e+00 5.532342433929443359e+00 2.028989028930664062e+01 7.629481792449951172e+00 -1.920178055763244629e+00 7.629481792449951172e+00 1.660873222351074219e+01
2.555029296875000000e+01 4.079907417297363281e+00 -3.447912454605102539e+00 4.079907417297363281e+00 2.418690872192382812e+01 9.183305740356445312e+00 -3.447912454605102539e+00 9.183305740356445312e+00 2.038963127136230469e+01
2.953886413574218750e+01 2.815396785736083984e+00 -4.551970005035400391e+00 2.815396785736083984e+00 2.702522468566894531e+01 1.014323997497558594e+01 -4.551970005035400391e+00 1.014323997497558594e+01 2.313404464721679688e+01
3.086882972717285156e+01 2.369355678558349609e+00 -4.896717071533203125e+00 2.369355678558349609e+00 2.794487571716308594e+01 1.040901184082031250e+01 -4.896717071533203125e+00 1.040901184082031250e+01 2.401990127563476562e+01
3.479846191406250000e+01 9.959641098976135254e-01 -5.832145214080810547e+00 9.959641098976135254e-01 3.059203338623046875e+01 1.103712081909179688e+01 -5.832145214080810547e+00 1.103712081909179688e+01 2.657164573669433594e+01
4.061357116699218750e+01 -1.258133292198181152e+00 -6.952374458312988281e+00 -1.258133292198181152e+00 3.442790603637695312e+01 1.135964202880859375e+01 -6.952374458312988281e+00 1.135964202880859375e+01 3.025713729858398438e+01
4.397389984130859375e+01 -2.842890501022338867e+00 -7.395989418029785156e+00 -2.842890501022338867e+00 3.664697647094726562e+01 1.083179855346679688e+01 -7.395989418029785156e+00 1.083179855346679688e+01 3.239370346069335938e+01
4.574539184570312500e+01 -4.375803470611572266e+00 -7.409182548522949219e+00 -4.375803470611572266e+00 3.785476684570312500e+01 9.115987777709960938e+00 -7.409182548522949219e+00 9.115987777709960938e+00 3.351692581176757812e+01
4.571312332153320312e+01 -4.617367267608642578e+00 -7.349962711334228516e+00 -4.617367267608642578e+00 3.784353637695312500e+01 8.631693840026855469e+00 -7.349962711334228516e+00 8.631693840026855469e+00 3.348337936401367188e+01
4.523758316040039062e+01 -5.036446094512939453e+00 -7.177374362945556641e+00 -5.036446094512939453e+00 3.754497146606445312e+01 7.536399364471435547e+00 -7.177374362945556641e+00 7.536399364471435547e+00 3.311862182617187500e+01
4.347166824340820312e+01 -5.528232574462890625e+00 -6.798971176147460938e+00 -5.528232574462890625e+00 3.636638641357421875e+01 5.610516548156738281e+00 -6.798971176147460938e+00 5.610516548156738281e+00 3.177523803710937500e+01
4.050412368774414062e+01 -5.891962051391601562e+00 -6.299932956695556641e+00 -5.891962051391601562e+00 3.432119750976562500e+01 3.422935009002685547e+00 -6.299932956695556641e+00 3.422935009002685547e+00 2.946152496337890625e+01
3.924118804931640625e+01 -5.988842010498046875e+00 -6.108783721923828125e+00 -5.988842010498046875e+00 3.344648742675781250e+01 2.648464202880859375e+00 -6.108783721923828125e+00 2.648464202880859375e+00 2.846609687805175781e+01
3.126616859436035156e+01 -6.370911121368408203e+00 -5.020267009735107422e+00 -6.370911121368408203e+00 2.782798957824707031e+01 -1.344002962112426758e+00 -5.020267009735107422e+00 -1.344002962112426758e+00 2.203954887390136719e+01
2.739628982543945312e+01 -6.485448360443115234e+00 -4.544048786163330078e+00 -6.485448360443115234e+00 2.506280708312988281e+01 -2.928293704986572266e+00 -4.544048786163330078e+00 -2.928293704986572266e+00 1.887099838256835938e+01
1.889781570434570312e+01 -6.659618377685546875e+00 -3.594684839248657227e+00 -6.659618377685546875e+00 1.894599914550781250e+01 -5.897116661071777344e+00 -3.594684839248657227e+00 -5.897116661071777344e+00 1.185430908203125000e+01
-7.878097057342529297e+00 -6.336828708648681641e+00 -1.610576868057250977e+00 -6.336828708648681641e+00 -4.735654890537261963e-01 -1.196636486053466797e+01 -1.610576868057250977e+00 -1.196636486053466797e+01 -1.033178615570068359e+01
-1.559497737884521484e+01 -5.887252807617187500e+00 -1.366528987884521484e+00 -5.887252807617187500e+00 -6.014142036437988281e+00 -1.292248535156250000e+01 -1.366528987884521484e+00 -1.292248535156250000e+01 -1.670425224304199219e+01
-2.212434577941894531e+01 -5.316549301147460938e+00 -1.276270508766174316e+00 -5.316549301147460938e+00 -1.058399295806884766e+01 -1.344222640991210938e+01 -1.276270508766174316e+00 -1.344222640991210938e+01 -2.204580307006835938e+01
-3.017205810546875000e+01 -4.244024753570556641e+00 -1.229855537414550781e+00 -4.244024753570556641e+00 -1.573593521118164062e+01 -1.361231040954589844e+01 -1.229855537414550781e+00 -1.361231040954589844e+01 -2.836530303955078125e+01
-3.386197662353515625e+01 -3.170193672180175781e+00 -9.895730614662170410e-01 -3.170193672180175781e+00 -1.644202613830566406e+01 -1.312378883361816406e+01 -9.895730614662170410e-01 -1.312378883361816406e+01 -3.020591735839843750e+01
-3.278041839599609375e+01 -2.831903457641601562e+00 -7.275757193565368652e-01 -2.831903457641601562e+00 -1.391276550292968750e+01 -1.266737842559814453e+01 -7.275757193565368652e-01 -1.266737842559814453e+01 -2.818070602416992188e+01
-2.878754043579101562e+01 -2.638989210128784180e+00 -3.958381116390228271e-01 -2.638989210128784180e+00 -8.305455207824707031e+00 -1.192697238922119141e+01 -3.958381116390228271e-01 -1.192697238922119141e+01 -2.310898971557617188e+01
-2.229813003540039062e+01 -2.557459354400634766e+00 -2.252344340085983276e-01 -2.557459354400634766e+00 -1.981476992368698120e-01 -1.092488574981689453e+01 -2.252344340085983276e-01 -1.092488574981689453e+01 -1.560664749145507812e+01
-2.101631736755371094e+01 -2.538868188858032227e+00 -2.270104885101318359e-01 -2.538868188858032227e+00 1.362052083015441895e+00 -1.072748947143554688e+01 -2.270104885101318359e-01 -1.072748947143554688e+01 -1.416212558746337891e+01
-1.831072807312011719e+01 -2.485113620758056641e+00 -2.652946412563323975e-01 -2.485113620758056641e+00 4.632655143737792969e+00 -1.030277061462402344e+01 -2.652946412563323975e-01 -1.030277061462402344e+01 -1.113312339782714844e+01
-1.393524265289306641e+01 -2.343238115310668945e+00 -4.192238152027130127e-01 -2.343238115310668945e+00 9.842100143432617188e+00 -9.573317527770996094e+00 -4.192238152027130127e-01 -9.573317527770996094e+00 -6.306472778320312500e+00
-6.137310504913330078e+00 -1.847329735755920410e+00 -9.641490578651428223e-01 -1.847329735755920410e+00 1.908079338073730469e+01 -8.158241271972656250e+00 -9.641490578651428223e-01 -8.158241271972656250e+00 2.216721296310424805e+00
-2.937714338302612305e+00 -1.525148987770080566e+00 -1.282174229621887207e+00 -1.525148987770080566e+00 2.283702278137207031e+01 -7.518136978149414062e+00 -1.282174229621887207e+00 -7.518136978149414062e+00 5.698544025421142578e+00
1.825982451438903809e+00 -8.952383399009704590e-01 -1.839693188667297363e+00 -8.952383399009704590e-01 2.838963699340820312e+01 -6.494465351104736328e+00 -1.839693188667297363e+00 -6.494465351104736328e+00 1.086032772064208984e+01
9.394797325134277344e+00 5.794841051101684570e-01 -2.858357667922973633e+00 5.794841051101684570e-01 3.685536575317382812e+01 -4.647665500640869141e+00 -2.858357667922973633e+00 -4.647665500640869141e+00 1.898421287536621094e+01
1.831333160400390625e+01 3.295445919036865234e+00 -3.887689828872680664e+00 3.295445919036865234e+00 4.546763992309570312e+01 -1.919023036956787109e+00 -3.887689828872680664e+00 -1.919023036956787109e+00 2.828225517272949219e+01
2.585232925415039062e+01 6.883626461029052734e+00 -2.746977090835571289e+00 6.883626461029052734e+00 4.625378036499023438e+01 2.249632358551025391e+00 -2.746977090835571289e+00 2.249632358551025391e+00 3.471555328369140625e+01
2.685626792907714844e+01 7.726898193359375000e+00 -1.259849429130554199e+00 7.726898193359375000e+00 4.194547271728515625e+01 4.114599227905273438e+00 -1.259849429130554199e+00 4.114599227905273438e+00 3.456712341308593750e+01
2.650312614440917969e+01 8.218594551086425781e+00 1.086436748504638672e+00 8.218594551086425781e+00 3.345339584350585938e+01 6.595534801483154297e+00 1.086436748504638672e+00 6.595534801483154297e+00 3.225727844238281250e+01
2.622947883605957031e+01 8.251441955566406250e+00 1.580235719680786133e+00 8.251441955566406250e+00 3.144661712646484375e+01 7.093950271606445312e+00 1.580235719680786133e+00 7.093950271606445312e+00 3.153233718872070312e+01
2.395991134643554688e+01 8.175418853759765625e+00 3.923509120941162109e+00 8.175418853759765625e+00 2.060188102722167969e+01 9.469857215881347656e+00 3.923509120941162109e+00 9.469857215881347656e+00 2.676392555236816406e+01
1.190224552154541016e+01 6.595595836639404297e+00 7.397340297698974609e+00 6.595595836639404297e+00 -9.111775398254394531e+00 1.299236106872558594e+01 7.397340297698974609e+00 1.299236106872558594e+01 5.072404861450195312e+00
1.027215766906738281e+01 6.313135147094726562e+00 7.478760719299316406e+00 6.313135147094726562e+00 -1.195730495452880859e+01 1.295165252685546875e+01 7.478760719299316406e+00 1.295165252685546875e+01 1.955741405487060547e+00
3.359331369400024414e+00 4.685933589935302734e+00 7.573037147521972656e+00 4.685933589935302734e+00 -2.220789718627929688e+01 1.116940307617187500e+01 7.573037147521972656e+00 1.116940307617187500e+01 -1.368202304840087891e+01
2.773224115371704102e+00 4.447833061218261719e+00 7.602809906005859375e+00 4.447833061218261719e+00 -2.283559226989746094e+01 1.072068214416503906e+01 7.602809906005859375e+00 1.072068214416503906e+01 -1.557453632354736328e+01
3.468983650207519531e+00 2.512779474258422852e+00 7.433696746826171875e+00 2.512779474258422852e+00 -1.653672027587890625e+01 3.989334106445312500e+00 7.433696746826171875e+00 3.989334106445312500e+00 -2.254948234558105469e+01
3.683117389678955078e+00 2.445638179779052734e+00 7.362437248229980469e+00 2.445638179779052734e+00 -1.585102939605712891e+01 3.566715717315673828e+00 7.362437248229980469e+00 3.566715717315673828e+00 -2.238313674926757812e+01
3.901355743408203125e+00 2.378872632980346680e+00 7.282518863677978516e+00 2.378872632980346680e+00 -1.514450931549072266e+01 3.136005401611328125e+00 7.282518863677978516e+00 3.136005401611328125e+00 -2.217864799499511719e+01
7.202645778656005859e+00 1.964084625244140625e+00 5.428812026977539062e+00 1.964084625244140625e+00 -4.878595352172851562e+00 -2.831475973129272461e+00 5.428812026977539062e+00 -2.831475973129272461e+00 -1.651190185546875000e+01
7.494179725646972656e+00 1.976903080940246582e+00 5.224688053131103516e+00 1.976903080940246582e+00 -4.045835494995117188e+00 -3.277149200439453125e+00 5.224688053131103516e+00 -3.277149200439453125e+00 -1.585372543334960938e+01
1.200239753723144531e+01 2.595496177673339844e+00 2.350638628005981445e+00 2.595496177673339844e+00 5.990810394287109375e+00 -7.604386329650878906e+00 2.350638628005981445e+00 -7.604386329650878906e+00 -5.284980773925781250e+00
1.409272098541259766e+01 2.856221914291381836e+00 1.346482992172241211e+00 2.856221914291381836e+00 9.540595054626464844e+00 -8.382407188415527344e+00 1.346482992172241211e+00 -8.382407188415527344e+00 -5.662800073623657227e-01
2.288745307922363281e+01 2.525906324386596680e+00 -7.623530626296997070e-01 2.525906324386596680e+00 2.298997497558593750e+01 -8.001540184020996094e+00 -7.623530626296997070e-01 -8.001540184020996094e+00 1.817647552490234375e+01
2.426888847351074219e+01 2.211714267730712891e+00 -8.116419911384582520e-01 2.211714267730712891e+00 2.524104690551757812e+01 -7.565121650695800781e+00 -8.116419911384582520e-01 -7.565121650695800781e+00 2.123808097839355469e+01
2.671934509277343750e+01 1.373285055160522461e+00 -6.937503814697265625e-01 1.373285055160522461e+00 2.960386657714843750e+01 -6.468841075897216797e+00 -6.937503814697265625e-01 -6.468841075897216797e+00 2.710342597961425781e+01
2.852444648742675781e+01 -1.546899080276489258e+00 3.415598571300506592e-01 -1.546899080276489258e+00 3.679986572265625000e+01 -2.038640499114990234e+00 3.415598571300506592e-01 -2.038640499114990234e+00 3.749078369140625000e+01
2.818442916870117188e+01 -1.786207199096679688e+00 4.081946909427642822e-01 -1.786207199096679688e+00 3.687942504882812500e+01 -1.557023882865905762e+00 4.081946909427642822e-01 -1.557023882865905762e+00 3.776322555541992188e+01
2.657486724853515625e+01 -2.417123794555664062e+00 5.514075160026550293e-01 -2.417123794555664062e+00 3.639735412597656250e+01 -6.463254243135452271e-02 5.514075160026550293e-01 -6.463254243135452271e-02 3.768357467651367188e+01
2.314558601379394531e+01 -3.025707006454467773e+00 6.261575818061828613e-01 -3.025707006454467773e+00 3.421055603027343750e+01 1.933229923248291016e+00 6.261575818061828613e-01 1.933229923248291016e+00 3.554601669311523438e+01
1.576415252685546875e+01 -3.397823810577392578e+00 7.453192472457885742e-01 -3.397823810577392578e+00 2.836477279663085938e+01 4.510374546051025391e+00 7.453192472457885742e-01 4.510374546051025391e+00 2.845862960815429688e+01
1.434927177429199219e+01 -3.397887468338012695e+00 8.017764687538146973e-01 -3.397887468338012695e+00 2.718593978881835938e+01 4.848442554473876953e+00 8.017764687538146973e-01 4.848442554473876953e+00 2.691303253173828125e+01
1.290273952484130859e+01 -3.382913112640380859e+00 8.735786676406860352e-01 -3.382913112640380859e+00 2.597257041931152344e+01 5.151802062988281250e+00 8.735786676406860352e-01 5.151802062988281250e+00 2.529424667358398438e+01
8.438415527343750000e+00 -3.265032529830932617e+00 1.189923882484436035e+00 -3.265032529830932617e+00 2.220502090454101562e+01 5.865204334259033203e+00 1.189923882484436035e+00 5.865204334259033203e+00 2.009492683410644531e+01
-1.727276086807250977e+00 -2.653101682662963867e+00 2.598526716232299805e+00 -2.653101682662963867e+00 1.333243465423583984e+01 6.363605022430419922e+00 2.598526716232299805e+00 6.363605022430419922e+00 7.126131534576416016e+00
-3.055145502090454102e+00 -2.544282913208007812e+00 2.866072893142700195e+00 -2.544282913208007812e+00 1.212301540374755859e+01 6.324325561523437500e+00 2.866072893142700195e+00 6.324325561523437500e+00 5.315103054046630859e+00
-4.331810474395751953e+00 -2.431678295135498047e+00 3.145135402679443359e+00 -2.431678295135498047e+00 1.093865871429443359e+01 6.266103267669677734e+00 3.145135402679443359e+00 6.266103267669677734e+00 3.540971755981445312e+00
-6.734158515930175781e+00 -2.208263397216796875e+00 3.730664253234863281e+00 -2.208263397216796875e+00 8.642923355102539062e+00 6.104902744293212891e+00 3.730664253234863281e+00 6.104902744293212891e+00 1.184087544679641724e-01
-8.903695106506347656e+00 -1.989603638648986816e+00 4.343575954437255859e+00 -1.989603638648986816e+00 6.466677188873291016e+00 5.900872230529785156e+00 4.343575954437255859e+00 5.900872230529785156e+00 -3.085579156875610352e+00
-1.248615646362304688e+01 -1.599324226379394531e+00 5.580173492431640625e+00 -1.599324226379394531e+00 2.494433164596557617e+00 5.461989402770996094e+00 5.580173492431640625e+00 5.461989402770996094e+00 -8.719732284545898438e+00
-1.387924003601074219e+01 -1.442557215690612793e+00 6.180720329284667969e+00 -1.442557215690612793e+00 7.021281123161315918e-01 5.278106212615966797e+00 6.180720329284667969e+00 5.278106212615966797e+00 -1.109820365905761719e+01
-1.643368911743164062e+01 -1.138903856277465820e+00 7.770979404449462891e+00 -1.138903856277465820e+00 -3.869187831878662109e+00 5.017454147338867188e+00 7.770979404449462891e+00 5.017454147338867188e+00 -1.630327606201171875e+01
-1.660811805725097656e+01 -1.068816184997558594e+00 8.916092872619628906e+00 -1.068816184997558594e+00 -7.214914798736572266e+00 5.356958866119384766e+00 8.916092872619628906e+00 5.356958866119384766e+00 -1.858741569519042969e+01
-1.616390228271484375e+01 -1.073892354965209961e+00 9.197825431823730469e+00 -1.073892354965209961e+00 -8.038238525390625000e+00 5.607158660888671875e+00 9.197825431823730469e+00 5.607158660888671875e+00 -1.874347686767578125e+01
-1.398006248474121094e+01 -1.076337695121765137e+00 9.713331222534179688e+00 -1.076337695121765137e+00 -9.435038566589355469e+00 6.454150199890136719e+00 9.713331222534179688e+00 6.454150199890136719e+00 -1.791812324523925781e+01
-4.672353744506835938e+00 -5.747846961021423340e-01 1.050860404968261719e+01 -5.747846961021423340e-01 -9.123425483703613281e+00 8.675377845764160156e+00 1.050860404968261719e+01 8.675377845764160156e+00 -1.161723995208740234e+01
-3.592251300811767578e+00 -4.738627374172210693e-01 1.059555435180664062e+01 -4.738627374172210693e-01 -8.873761177062988281e+00 8.842265129089355469e+00 1.059555435180664062e+01 8.842265129089355469e+00 -1.085486984252929688e+01
-1.350010156631469727e+00 -2.392306029796600342e-01 1.078240776062011719e+01 -2.392306029796600342e-01 -8.273823738098144531e+00 9.136021614074707031e+00 1.078240776062011719e+01 9.136021614074707031e+00 -9.283654212951660156e+00
-1.960644423961639404e-01 -1.055945456027984619e-01 1.088599205017089844e+01 -1.055945456027984619e-01 -7.926979064941406250e+00 9.263332366943359375e+00 1.088599205017089844e+01 9.263332366943359375e+00 -8.482744216918945312e+00
3.363066196441650391e+00 3.625202476978302002e-01 1.124201011657714844e+01 3.625202476978302002e-01 -6.705216884613037109e+00 9.559169769287109375e+00 1.124201011657714844e+01 9.559169769287109375e+00 -6.070475578308105469e+00
4.569113254547119141e+00 5.419978499412536621e-01 1.137521743774414062e+01 5.419978499412536621e-01 -6.235732078552246094e+00 9.627646446228027344e+00 1.137521743774414062e+01 9.627646446228027344e+00 -5.271592140197753906e+00
1.061661243438720703e+01 1.566931128501892090e+00 1.208485031127929688e+01 1.566931128501892090e+00 -3.489842653274536133e+00 9.774012565612792969e+00 1.208485031127929688e+01 9.774012565612792969e+00 -1.420833230018615723e+00
1.866303443908691406e+01 3.279022932052612305e+00 1.294825553894042969e+01 3.279022932052612305e+00 1.193856716156005859e+00 9.644001960754394531e+00 1.294825553894042969e+01 9.644001960754394531e+00 3.185558795928955078e+00
1.973894882202148438e+01 3.537306308746337891e+00 1.302255344390869141e+01 3.537306308746337891e+00 1.907567262649536133e+00 9.621255874633789062e+00 1.302255344390869141e+01 9.621255874633789062e+00 3.749348402023315430e+00
2.079152297973632812e+01 3.795281648635864258e+00 1.307931995391845703e+01 3.795281648635864258e+00 2.626662731170654297e+00 9.602058410644531250e+00 1.307931995391845703e+01 9.602058410644531250e+00 4.285343170166015625e+00
2.377902221679687500e+01 4.548959255218505859e+00 1.311183738708496094e+01 4.548959255218505859e+00 4.800948619842529297e+00 9.566574096679687500e+00 1.311183738708496094e+01 9.566574096679687500e+00 5.723281383514404297e+00
3.108887290954589844e+01 6.437281608581542969e+00 1.181835460662841797e+01 6.437281608581542969e+00 1.081727981567382812e+01 9.800241470336914062e+00 1.181835460662841797e+01 9.800241470336914062e+00 8.659305572509765625e+00
3.171518516540527344e+01 6.585304737091064453e+00 1.155381679534912109e+01 6.585304737091064453e+00 1.139196014404296875e+01 9.850542068481445312e+00 1.155381679534912109e+01 9.850542068481445312e+00 8.876042366027832031e+00
3.412405776977539062e+01 7.090840816497802734e+00 9.997561454772949219e+00 7.090840816497802734e+00 1.389904785156250000e+01 1.007773780822753906e+01 9.997561454772949219e+00 1.007773780822753906e+01 9.760847091674804688e+00
3.470799636840820312e+01 7.170224666595458984e+00 9.316929817199707031e+00 7.170224666595458984e+00 1.470148468017578125e+01 1.014181900024414062e+01 9.316929817199707031e+00 1.014181900024414062e+01 1.004761219024658203e+01
3.242598724365234375e+01 6.188900470733642578e+00 5.996514797210693359e+00 6.188900470733642578e+00 1.698235511779785156e+01 9.631541252136230469e+00 5.996514797210693359e+00 9.631541252136230469e+00 1.154223823547363281e+01
2.667690658569335938e+01 4.716860294342041016e+00 4.910716056823730469e+00 4.716860294342041016e+00 1.673007965087890625e+01 8.458809852600097656e+00 4.910716056823730469e+00 8.458809852600097656e+00 1.261826896667480469e+01
2.410743141174316406e+01 4.139860630035400391e+00 4.667681694030761719e+00 4.139860630035400391e+00 1.644215202331542969e+01 7.900376796722412109e+00 4.667681694030761719e+00 7.900376796722412109e+00 1.305907726287841797e+01
1.813836669921875000e+01 2.945464372634887695e+00 4.313477039337158203e+00 2.945464372634887695e+00 1.560249519348144531e+01 6.516629695892333984e+00 4.313477039337158203e+00 6.516629695892333984e+00 1.410422992706298828e+01
1.651752471923828125e+01 2.652891397476196289e+00 4.241118431091308594e+00 2.652891397476196289e+00 1.534469223022460938e+01 6.121819496154785156e+00 4.241118431091308594e+00 6.121819496154785156e+00 1.440373516082763672e+01
1.486049938201904297e+01 2.369395732879638672e+00 4.173939228057861328e+00 2.369395732879638672e+00 1.507060050964355469e+01 5.707193851470947266e+00 4.173939228057861328e+00 5.707193851470947266e+00 1.471925067901611328e+01
-1.419302654266357422e+01 5.061579346656799316e-01 2.371460199356079102e+00 5.061579346656799316e-01 8.499711990356445312e+00 -3.144345283508300781e+00 2.371460199356079102e+00 -3.144345283508300781e+00 2.216377639770507812e+01
-1.541259574890136719e+01 6.052835583686828613e-01 2.176939725875854492e+00 6.052835583686828613e-01 8.121556282043457031e+00 -3.576212167739868164e+00 2.176939725875854492e+00 -3.576212167739868164e+00 2.256235504150390625e+01
-2.454079246520996094e+01 2.381570100784301758e+00 -8.261458277702331543e-01 2.381570100784301758e+00 4.536592006683349609e+00 -6.571909904479980469e+00 -8.261458277702331543e-01 -6.571909904479980469e+00 2.498152351379394531e+01