-6.084293750000000000e+04
-6.084208593750000000e+04
-6.083877343750000000e+04
-6.083448828125000000e+04
-6.082778906250000000e+04
-6.081742187500000000e+04
-6.080822656250000000e+04
-6.080464843750000000e+04
-6.080420703125000000e+04
-6.080329687500000000e+04
-6.080277343750000000e+04
-6.080267968750000000e+04
-6.080160546875000000e+04
-6.080045703125000000e+04
-6.079958593750000000e+04
-6.079927734375000000e+04
-6.079896093750000000e+04
-6.079831250000000000e+04
-6.079798437500000000e+04
-6.079765625000000000e+04
-6.079732812500000000e+04
-6.079667968750000000e+04
-6.079575781250000000e+04
-6.079491406250000000e+04
-6.079237500000000000e+04
-6.079231640625000000e+04
-6.079227734375000000e+04
-6.079224218750000000e+04
-6.079246093750000000e+04
-6.079255859375000000e+04
-6.079293750000000000e+04
-6.079308984375000000e+04
-6.079361718750000000e+04
-6.079380859375000000e+04
-6.079400390625000000e+04
-6.079419921875000000e+04
-6.079439843750000000e+04
-6.079459375000000000e+04
-6.079478515625000000e+04
-6.079514453125000000e+04
-6.079546875000000000e+04
-6.079573828125000000e+04
-6.079584765625000000e+04
-6.079606250000000000e+04
-6.079609375000000000e+04
-6.079607421875000000e+04
-6.079596093750000000e+04
-6.079500390625000000e+04
-6.079449218750000000e+04
-6.079390234375000000e+04
-6.079288281250000000e+04
-6.079096484375000000e+04
-6.079017578125000000e+04
-6.078792968750000000e+04
-6.078772656250000000e+04
-6.078755859375000000e+04
-6.078733984375000000e+04
-6.078728125000000000e+04
-6.078725390625000000e+04
-6.078725781250000000e+04
-6.078736328125000000e+04
-6.078724609375000000e+04
-6.078692968750000000e+04
-6.078621484375000000e+04
-6.078592187500000000e+04
-6.078526562500000000e+04
-6.078307421875000000e+04
-6.078271484375000000e+04
-6.078235937500000000e+04
-6.078136328125000000e+04
-6.078048437500000000e+04
-6.077806250000000000e+04
-6.077792578125000000e+04
-6.077720312500000000e+04
-6.077653125000000000e+04
-6.077628125000000000e+04
-6.077746875000000000e+04
-6.077782031250000000e+04
-6.077814453125000000e+04
-6.077851953125000000e+04
-6.077861328125000000e+04
-6.077867968750000000e+04
-6.077873437500000000e+04
-6.077869531250000000e+04
-6.077854687500000000e+04
-6.077831640625000000e+04
-6.077816406250000000e+04
-6.077799218750000000e+04
-6.077758203125000000e+04
-6.077707031250000000e+04
-6.077677343750000000e+04
-6.077645312500000000e+04
-6.077573437500000000e+04
-6.077450390625000000e+04
-6.077316015625000000e+04
-6.077269531250000000e+04
-6.077223828125000000e+04
-6.077178906250000000e+04
-6.077136328125000000e+04
-6.077057421875000000e+04
-6.077022265625000000e+04
-6.076939843750000000e+04
-6.076921093750000000e+04
-6.076895312500000000e+04
-6.076895312500000000e+04
-6.076923828125000000e+04
-6.076936328125000000e+04
-6.076987890625000000e+04
-6.076993359375000000e+04
-6.076973046875000000e+04
-6.076961718750000000e+04
-6.076873828125000000e+04
-6.076789062500000000e+04
-6.076768750000000000e+04
-6.076730468750000000e+04
-6.076713281250000000e+04
-6.076682812500000000e+04
-6.076669531250000000e+04
-6.076597656250000000e+04
-6.076571093750000000e+04
-6.076521484375000000e+04
-6.076505859375000000e+04
-6.076452343750000000e+04
-6.076392578125000000e+04
-6.076373046875000000e+04
-6.076258593750000000e+04
-6.076247656250000000e+04
-6.076229687500000000e+04
-6.076212890625000000e+04
-6.076205078125000000e+04
-6.076198828125000000e+04
-6.076196093750000000e+04
-6.076188671875000000e+04
-6.076183203125000000e+04
-6.076127343750000000e+04
-6.076071093750000000e+04
-6.076056250000000000e+04
-6.076027734375000000e+04
-6.076014453125000000e+04
-6.076001953125000000e+04
-6.075958203125000000e+04
-6.075948046875000000e+04
-6.075928515625000000e+04
-6.075900390625000000e+04
-6.075862109375000000e+04
-6.075853125000000000e+04
-6.075821093750000000e+04
-6.075810546875000000e+04
-6.075807031250000000e+04
-6.075804687500000000e+04
-6.075807031250000000e+04
-6.075805468750000000e+04
-6.075802343750000000e+04
-6.075797656250000000e+04
-6.075779687500000000e+04
-6.075585546875000000e+04
-6.075557812500000000e+04
-6.075503515625000000e+04
-6.075384765625000000e+04
-6.075365625000000000e+04
-6.075350000000000000e+04
-6.075235937500000000e+04
-6.075209765625000000e+04
-6.075193750000000000e+04
-6.074983984375000000e+04
-6.074892968750000000e+04
-6.074864062500000000e+04
-6.074812109375000000e+04
-6.074690234375000000e+04
-6.074555859375000000e+04
-6.074455078125000000e+04
-6.074351562500000000e+04
-6.074301171875000000e+04
-6.074062500000000000e+04
-6.074025781250000000e+04
-6.073998046875000000e+04
-6.073980078125000000e+04
-6.073991796875000000e+04
-6.074027343750000000e+04
-6.074050781250000000e+04
-6.074048437500000000e+04
-6.074039062500000000e+04
-6.074030468750000000e+04
-6.074010546875000000e+04
-6.073987500000000000e+04
-6.073975390625000000e+04
-6.073962109375000000e+04
-6.073947656250000000e+04
-6.073873046875000000e+04
-6.073827734375000000e+04
-6.073666406250000000e+04
-6.073098046875000000e+04
-6.073000781250000000e+04
-6.072957421875000000e+04
-6.072783593750000000e+04
-6.072756250000000000e+04
-6.072731250000000000e+04
-6.072627734375000000e+04
-6.072568750000000000e+04
-6.072562500000000000e+04
-6.072555859375000000e+04
-6.072557812500000000e+04
-6.072588281250000000e+04
-6.072607031250000000e+04
-6.072633984375000000e+04
-6.072663281250000000e+04
-6.072682421875000000e+04
-6.072724609375000000e+04
-6.072762109375000000e+04
-6.072783984375000000e+04
-6.072806250000000000e+04
-6.072850781250000000e+04
-6.072871484375000000e+04
-6.072920703125000000e+04
-6.072908984375000000e+04
-6.072828515625000000e+04
-6.072741015625000000e+04
-6.072674218750000000e+04
-6.072639062500000000e+04
-6.072605859375000000e+04
-6.072430468750000000e+04
-6.072405078125000000e+04
-6.072345312500000000e+04
-6.072320703125000000e+04
-6.072291015625000000e+04
-6.072281640625000000e+04
-6.072273437500000000e+04
-6.072265234375000000e+04
-6.072257421875000000e+04
-6.072250000000000000e+04
-6.072057421875000000e+04
-6.071905078125000000e+04
-6.071814453125000000e+04
-6.071717968750000000e+04
-6.071698828125000000e+04
-6.071637500000000000e+04
-6.071625781250000000e+04
-6.071648437500000000e+04
-6.071685937500000000e+04
-6.071709375000000000e+04
-6.071713671875000000e+04
-6.071856250000000000e+04
-6.071867187500000000e+04
-6.071885546875000000e+04
-6.071894921875000000e+04
-6.071889453125000000e+04
-6.071869140625000000e+04
-6.071696484375000000e+04
-6.071493359375000000e+04
-6.071450390625000000e+04
-6.071362500000000000e+04
-6.071267187500000000e+04
-6.071144921875000000e+04
-6.071074218750000000e+04
-6.070975390625000000e+04
-6.070948437500000000e+04
-6.070873437500000000e+04
-6.070814843750000000e+04
-6.070809765625000000e+04
-6.070798437500000000e+04
-6.070797265625000000e+04
-6.070795703125000000e+04
-6.070810156250000000e+04
-6.070893359375000000e+04
-6.070908593750000000e+04
-6.070921484375000000e+04
-6.070926171875000000e+04
-6.070964843750000000e+04
-6.070979687500000000e+04
-6.070983203125000000e+04
-6.070974218750000000e+04
-6.070978125000000000e+04
-6.070984375000000000e+04
-6.070975000000000000e+04
-6.070939453125000000e+04
-6.070912109375000000e+04
-6.070872265625000000e+04
-6.070847656250000000e+04
-6.070772265625000000e+04
-6.070744531250000000e+04
-6.070676562500000000e+04
-6.070555468750000000e+04
-6.070550000000000000e+04
-6.070539843750000000e+04
-6.070536718750000000e+04
-6.070561328125000000e+04
-6.070633984375000000e+04
-6.070641406250000000e+04
-6.070685937500000000e+04
-6.070709375000000000e+04
-6.070773437500000000e+04
-6.070817968750000000e+04
-6.070841406250000000e+04
-6.070860546875000000e+04
-6.070829687500000000e+04
-6.070823437500000000e+04
-6.070788281250000000e+04
-6.070775000000000000e+04
-6.070716406250000000e+04
-6.070707812500000000e+04
-6.070655468750000000e+04
-6.070557812500000000e+04
-6.070557421875000000e+04
-6.070524609375000000e+04
-6.070491015625000000e+04
-6.070476562500000000e+04
-6.070480859375000000e+04
-6.070421484375000000e+04
-6.070341406250000000e+04
-6.070295703125000000e+04
-6.070308203125000000e+04
-6.070392578125000000e+04
-6.070469921875000000e+04
-6.070551953125000000e+04
-6.070858203125000000e+04
-6.070900390625000000e+04
-6.070941015625000000e+04
-6.070982421875000000e+04
-6.071129296875000000e+04
-6.071172656250000000e+04
-6.071191015625000000e+04
-6.071257421875000000e+04
-6.071291796875000000e+04
-6.071302734375000000e+04
-6.071303906250000000e+04
-6.071303906250000000e+04
-6.071305078125000000e+04
-6.071293359375000000e+04
-6.071271484375000000e+04
-6.071261328125000000e+04
-6.071168359375000000e+04
-6.070983984375000000e+04
-6.070868359375000000e+04
-6.070769531250000000e+04
-6.070741796875000000e+04
-6.070679687500000000e+04
-6.070536718750000000e+04
-6.070523046875000000e+04
-6.070518750000000000e+04
-6.070566796875000000e+04
-6.070619531250000000e+04
-6.070639843750000000e+04
-6.070781250000000000e+04
-6.070853515625000000e+04
-6.070851953125000000e+04
-6.070846093750000000e+04
-6.070846875000000000e+04
-6.070841015625000000e+04
-6.070826171875000000e+04
-6.070813671875000000e+04
-6.070791015625000000e+04
-6.070750781250000000e+04
-6.070737109375000000e+04
-6.070718359375000000e+04
-6.070567968750000000e+04
-6.070635937500000000e+04
-6.070696093750000000e+04
-6.070785546875000000e+04
-6.070878125000000000e+04
-6.070917968750000000e+04
-6.071095703125000000e+04
-6.071117187500000000e+04
-6.071057031250000000e+04
-6.071045703125000000e+04
-6.071030078125000000e+04
-6.071002343750000000e+04
-6.070975390625000000e+04
-6.070917968750000000e+04
-6.070776562500000000e+04
-6.070701171875000000e+04
-6.070737890625000000e+04
-6.070751953125000000e+04
-6.070824609375000000e+04
-6.070866406250000000e+04
-6.070940234375000000e+04
-6.070966796875000000e+04
-6.071030468750000000e+04
-6.071041406250000000e+04
-6.071050781250000000e+04
-6.071023828125000000e+04
-6.070998828125000000e+04
-6.070989453125000000e+04
-6.070970312500000000e+04
-6.070967578125000000e+04
-6.070957812500000000e+04
-6.071008984375000000e+04
-6.070972265625000000e+04
-6.070973828125000000e+04
-6.070994140625000000e+04
-6.070993750000000000e+04
-6.070973046875000000e+04
-6.070920312500000000e+04
-6.070908203125000000e+04
-6.070873828125000000e+04
-6.070857031250000000e+04
-6.070809375000000000e+04
-6.070823828125000000e+04
-6.070855078125000000e+04
-6.070873828125000000e+04
-6.070912500000000000e+04
-6.070925781250000000e+04
-6.070925781250000000e+04
-6.070877343750000000e+04
-6.070767187500000000e+04
-6.070742578125000000e+04
-6.070627343750000000e+04
-6.070600390625000000e+04
-6.070394921875000000e+04
-6.070314453125000000e+04
-6.070244921875000000e+04
-6.070213281250000000e+04
-6.070088671875000000e+04
-6.070103125000000000e+04
-6.070119531250000000e+04
-6.070173437500000000e+04
-6.070188281250000000e+04
-6.070309765625000000e+04
-6.070358593750000000e+04
-6.070434765625000000e+04
-6.070516796875000000e+04
-6.070568750000000000e+04
-6.070626171875000000e+04
-6.070628125000000000e+04
-6.070627734375000000e+04
-6.070605859375000000e+04
-6.070500390625000000e+04
-6.070463671875000000e+04
-6.070454687500000000e+04
-6.070444531250000000e+04
-6.070452734375000000e+04
-6.070460546875000000e+04
-6.070454296875000000e+04
-6.070342578125000000e+04
-6.070241796875000000e+04
-6.070210937500000000e+04
-6.070160937500000000e+04
-6.070107812500000000e+04
-6.070089843750000000e+04
-6.070121484375000000e+04
-6.070132812500000000e+04
-6.070159375000000000e+04
-6.070218750000000000e+04
-6.070251171875000000e+04
-6.070284375000000000e+04
-6.070408984375000000e+04
-6.070468750000000000e+04
-6.070507421875000000e+04
-6.070516406250000000e+04
-6.070523437500000000e+04
-6.070540625000000000e+04
-6.070545703125000000e+04
-6.070544921875000000e+04
-6.070546484375000000e+04
-6.070548437500000000e+04
-6.070553906250000000e+04
-6.070555859375000000e+04
-6.070550781250000000e+04
-6.070530078125000000e+04
-6.070528515625000000e+04
-6.070504687500000000e+04
-6.070497656250000000e+04
-6.070494921875000000e+04
-6.070487500000000000e+04
-6.070453515625000000e+04
-6.070436718750000000e+04
-6.070433593750000000e+04
-6.070434765625000000e+04
-6.070430468750000000e+04
-6.070435156250000000e+04
-6.070422656250000000e+04
-6.070426562500000000e+04
-6.070439843750000000e+04
-6.070423437500000000e+04
-6.070387890625000000e+04
-6.070373828125000000e+04
-6.070331640625000000e+04
-6.070312890625000000e+04
-6.070162500000000000e+04
-6.070045312500000000e+04
-6.069936328125000000e+04
-6.069872265625000000e+04
-6.069804687500000000e+04
-6.069758593750000000e+04
-6.069708984375000000e+04
-6.069660546875000000e+04
-6.069636718750000000e+04
-6.069607031250000000e+04
-6.069601171875000000e+04
-6.069508593750000000e+04
-6.069494531250000000e+04
-6.069450781250000000e+04
-6.069432812500000000e+04
-6.069389062500000000e+04
-6.069380078125000000e+04
-6.069353125000000000e+04
-6.069353125000000000e+04
-6.069344921875000000e+04
-6.069368359375000000e+04
-6.069356640625000000e+04
-6.069398828125000000e+04
-6.069448828125000000e+04
-6.069471093750000000e+04
-6.069558203125000000e+04
-6.069578906250000000e+04
-6.069646875000000000e+04
-6.069672656250000000e+04
-6.069679296875000000e+04
-6.069689843750000000e+04
-6.069694140625000000e+04
-6.069672656250000000e+04
-6.069658984375000000e+04
-6.069623437500000000e+04
-6.069601953125000000e+04
-6.069556250000000000e+04
-6.069482812500000000e+04
-6.069470703125000000e+04
-6.069458593750000000e+04
-6.069424609375000000e+04
-6.069412890625000000e+04
-6.069405078125000000e+04
-6.069385937500000000e+04
-6.069310937500000000e+04
-6.069240234375000000e+04
-6.069190625000000000e+04
-6.069151562500000000e+04
-6.069079687500000000e+04
-6.069026953125000000e+04
-6.069040234375000000e+04
-6.069050000000000000e+04
-6.069046093750000000e+04
-6.069087500000000000e+04
-6.069108984375000000e+04
-6.069129296875000000e+04
-6.069141796875000000e+04
-6.069160156250000000e+04
-6.069177734375000000e+04
-6.069275781250000000e+04
-6.069382031250000000e+04
-6.069392578125000000e+04
-6.069341015625000000e+04
-6.069314062500000000e+04
-6.069250781250000000e+04
-6.069244140625000000e+04
-6.069228906250000000e+04
-6.069296875000000000e+04
-6.069325781250000000e+04
-6.069406250000000000e+04
-6.069419921875000000e+04
-6.069416015625000000e+04
-6.069362890625000000e+04
-6.069355468750000000e+04
-6.069233203125000000e+04
-6.069176562500000000e+04
-6.069124609375000000e+04
-6.069094531250000000e+04
-6.068951953125000000e+04
-6.068732031250000000e+04
-6.068737890625000000e+04
-6.068748828125000000e+04
-6.068846875000000000e+04
-6.068928125000000000e+04
-6.069017578125000000e+04
-6.069499218750000000e+04
-6.069543750000000000e+04
-6.069645312500000000e+04
-6.069732421875000000e+04
-6.069776171875000000e+04
-6.069451953125000000e+04
-6.069333984375000000e+04
-6.069269531250000000e+04
-6.069333203125000000e+04
-6.069374609375000000e+04
-6.069429296875000000e+04
-6.069451953125000000e+04
-6.069459765625000000e+04
-6.069483984375000000e+04
-6.069487500000000000e+04
-6.069471093750000000e+04
-6.069460546875000000e+04
-6.069450390625000000e+04
-6.069416796875000000e+04
-6.069398437500000000e+04
-6.069373828125000000e+04
-6.069273828125000000e+04
-6.069254296875000000e+04
-6.069136328125000000e+04
-6.069086718750000000e+04
-6.069087500000000000e+04
-6.069099609375000000e+04
-6.069139453125000000e+04
-6.069153515625000000e+04
-6.069232031250000000e+04
-6.069226562500000000e+04
-6.069186328125000000e+04
-6.069181640625000000e+04
-6.069173046875000000e+04
-6.069163281250000000e+04
-6.069149218750000000e+04
-6.069153125000000000e+04
-6.069168750000000000e+04
-6.069215234375000000e+04
-6.069320312500000000e+04
-6.069365234375000000e+04
-6.069455468750000000e+04
-6.069479687500000000e+04
-6.069568359375000000e+04
-6.069593359375000000e+04
-6.069629296875000000e+04
-6.069728906250000000e+04
-6.069747265625000000e+04
-6.069817578125000000e+04
-6.069826562500000000e+04
-6.069845312500000000e+04
-6.069853906250000000e+04
-6.069857421875000000e+04
-6.069852734375000000e+04
-6.069841406250000000e+04
-6.069692968750000000e+04
-6.069625390625000000e+04
-6.069605468750000000e+04
-6.069590234375000000e+04
-6.069530859375000000e+04
-6.069511328125000000e+04
-6.069451562500000000e+04
-6.069441796875000000e+04
-6.069526953125000000e+04
-6.069656640625000000e+04
-6.069666406250000000e+04
-6.069674609375000000e+04
-6.069682812500000000e+04
-6.069708203125000000e+04
-6.069703125000000000e+04
-6.069691406250000000e+04
-6.069675390625000000e+04
-6.069666406250000000e+04
-6.069644531250000000e+04
-6.069603906250000000e+04
-6.069592968750000000e+04
-6.069557031250000000e+04
-6.069509375000000000e+04
-6.069498046875000000e+04
-6.069467578125000000e+04
-6.069448828125000000e+04
-6.069383593750000000e+04
-6.069275781250000000e+04
-6.069245312500000000e+04
-6.069223046875000000e+04
-6.069154687500000000e+04
-6.069142578125000000e+04
-6.069141015625000000e+04
-6.069145312500000000e+04
-6.069162109375000000e+04
-6.069167968750000000e+04
-6.069207031250000000e+04
-6.069235546875000000e+04
-6.069299218750000000e+04
-6.069398437500000000e+04
-6.069397265625000000e+04
-6.069423828125000000e+04
-6.069437109375000000e+04
-6.069431250000000000e+04
-6.069435937500000000e+04
-6.069439843750000000e+04
-6.069446093750000000e+04
-6.069449218750000000e+04
-6.069499609375000000e+04
-6.069505078125000000e+04
-6.069673828125000000e+04
-6.069742578125000000e+04
-6.069753125000000000e+04
-6.069809765625000000e+04
-6.069828125000000000e+04
-6.069853906250000000e+04
-6.069913281250000000e+04
-6.069929296875000000e+04
-6.069944921875000000e+04
-6.070032812500000000e+04
-6.070106640625000000e+04
-6.070122265625000000e+04
-6.070129296875000000e+04
-6.070123046875000000e+04
-6.070118359375000000e+04
-6.070108203125000000e+04
-6.070075390625000000e+04
-6.069961328125000000e+04
-6.069925390625000000e+04
-6.069869921875000000e+04
-6.069787109375000000e+04
-6.069707421875000000e+04
-6.069694140625000000e+04
-6.069578906250000000e+04
-6.069467187500000000e+04
-6.069446093750000000e+04
-6.069421875000000000e+04
-6.069393359375000000e+04
-6.069235937500000000e+04
-6.069206250000000000e+04
-6.069191406250000000e+04
-6.069117578125000000e+04
-6.069059375000000000e+04
-6.068855859375000000e+04
-6.068833593750000000e+04
-6.068794531250000000e+04
-6.068806250000000000e+04
-6.068825781250000000e+04
-6.068847265625000000e+04
-6.069003515625000000e+04
-6.069044921875000000e+04
-6.069233203125000000e+04
-6.069259375000000000e+04
-6.069325781250000000e+04
-6.069339062500000000e+04
-6.069330859375000000e+04
-6.069330859375000000e+04
-6.069338281250000000e+04
-6.069345312500000000e+04
-6.069360937500000000e+04
-6.069367968750000000e+04
-6.069376953125000000e+04
-6.069366796875000000e+04
-6.069334765625000000e+04
-6.069295703125000000e+04
-6.069228906250000000e+04
-6.069208984375000000e+04
-6.069072656250000000e+04
-6.068990234375000000e+04
-6.068800390625000000e+04
-6.068779296875000000e+04
-6.068726953125000000e+04
-6.068746875000000000e+04
-6.068733593750000000e+04
-6.068732421875000000e+04
-6.068727734375000000e+04
-6.068732421875000000e+04
-6.068697656250000000e+04
-6.068675781250000000e+04
-6.068627734375000000e+04
-6.068609375000000000e+04
-6.068570703125000000e+04
-6.068581640625000000e+04
-6.068601171875000000e+04
-6.068629687500000000e+04
-6.068675000000000000e+04
-6.068685156250000000e+04
-6.068698046875000000e+04
-6.068705468750000000e+04
-6.068691015625000000e+04
-6.068652343750000000e+04
-6.068644921875000000e+04
-6.068628906250000000e+04
-6.068579296875000000e+04
-6.068551953125000000e+04
-6.068523437500000000e+04
-6.068476562500000000e+04
-6.068467578125000000e+04
-6.068468359375000000e+04
-6.068466406250000000e+04
-6.068508203125000000e+04
-6.068498046875000000e+04
-6.068532031250000000e+04
-6.068543359375000000e+04
-6.068548828125000000e+04
-6.068555859375000000e+04
-6.068555078125000000e+04
-6.068537109375000000e+04
-6.068541015625000000e+04
-6.068538671875000000e+04
-6.068541015625000000e+04
-6.068524218750000000e+04
-6.068507421875000000e+04
-6.068509765625000000e+04
-6.068498046875000000e+04
-6.068575781250000000e+04
-6.068599218750000000e+04
-6.068653125000000000e+04
-6.068705078125000000e+04
-6.068732031250000000e+04
-6.068754687500000000e+04
-6.068806250000000000e+04
-6.068777343750000000e+04
-6.068707421875000000e+04
-6.068666406250000000e+04
-6.068626562500000000e+04
-6.068558203125000000e+04
-6.068523828125000000e+04
-6.068451171875000000e+04
-6.068430078125000000e+04
-6.068498437500000000e+04
-6.068696484375000000e+04
-6.068737500000000000e+04
-6.068769921875000000e+04
-6.068896093750000000e+04
-6.068921093750000000e+04
-6.068925000000000000e+04
-6.068923437500000000e+04
-6.068894531250000000e+04
-6.068878125000000000e+04
-6.068858203125000000e+04
-6.068839843750000000e+04
-6.068835937500000000e+04
-6.068838671875000000e+04
-6.068854296875000000e+04
-6.068841015625000000e+04
-6.068869531250000000e+04
-6.068894531250000000e+04
-6.068892968750000000e+04
-6.068935156250000000e+04
-6.068965234375000000e+04
-6.068983593750000000e+04
-6.068998046875000000e+04
-6.069007421875000000e+04
-6.069016796875000000e+04
-6.069008203125000000e+04
-6.069023437500000000e+04
-6.069051953125000000e+04
-6.069091406250000000e+04
-6.069103515625000000e+04
-6.069139453125000000e+04
-6.069146093750000000e+04
-6.069184375000000000e+04
-6.069210156250000000e+04
-6.069230859375000000e+04
-6.069253125000000000e+04
-6.069251562500000000e+04
-6.069266015625000000e+04
-6.069252343750000000e+04
-6.069272265625000000e+04
-6.069261328125000000e+04
-6.069266015625000000e+04
-6.069280859375000000e+04
-6.069292968750000000e+04
-6.069192968750000000e+04
-6.069284765625000000e+04
-6.069314062500000000e+04
-6.069308984375000000e+04
-6.069300000000000000e+04
-6.069260546875000000e+04
-6.069152734375000000e+04
-6.069014453125000000e+04
-6.068986718750000000e+04
-6.068957812500000000e+04
-6.068858984375000000e+04
-6.068833593750000000e+04
-6.068818750000000000e+04
-6.068760546875000000e+04
-6.068759765625000000e+04
-6.068739062500000000e+04
-6.068738281250000000e+04
-6.068738671875000000e+04
-6.068810937500000000e+04
-6.068826171875000000e+04
-6.068876171875000000e+04
-6.068980078125000000e+04
-6.068980468750000000e+04
-6.068977343750000000e+04
-6.068964062500000000e+04
-6.068996484375000000e+04
-6.069137500000000000e+04
-6.069152734375000000e+04
-6.069194531250000000e+04
-6.069205859375000000e+04
-6.069211718750000000e+04
-6.069207812500000000e+04
-6.069204687500000000e+04
-6.069200390625000000e+04
-6.069198828125000000e+04
-6.069190234375000000e+04
-6.069194921875000000e+04
-6.069191406250000000e+04
-6.069185546875000000e+04
-6.069107421875000000e+04
-6.069073828125000000e+04
-6.069061718750000000e+04
-6.068991796875000000e+04
-6.068856250000000000e+04
-6.068690234375000000e+04
-6.068653906250000000e+04
-6.068626171875000000e+04
-6.068592187500000000e+04
-6.068491406250000000e+04
-6.068469921875000000e+04
-6.068457421875000000e+04
-6.068495703125000000e+04
-6.068570312500000000e+04
-6.068583593750000000e+04
-6.068673828125000000e+04
-6.068689843750000000e+04
-6.068699218750000000e+04
-6.068688671875000000e+04
-6.068671093750000000e+04
-6.068651953125000000e+04
-6.068635546875000000e+04
-6.068607812500000000e+04
-6.068515625000000000e+04
-6.068530468750000000e+04
-6.068542187500000000e+04
-6.068639453125000000e+04
-6.068662500000000000e+04
-6.068695312500000000e+04
-6.068713281250000000e+04
-6.068790234375000000e+04
-6.068814062500000000e+04
-6.068842578125000000e+04
-6.068881250000000000e+04
-6.068874609375000000e+04
-6.068818359375000000e+04
-6.068705859375000000e+04
-6.068613671875000000e+04
-6.068592187500000000e+04
-6.068465625000000000e+04
-6.068462890625000000e+04
-6.068403906250000000e+04
-6.068263281250000000e+04
-6.068248828125000000e+04
-6.068232031250000000e+04
-6.068261328125000000e+04
-6.068282031250000000e+04
-6.068310156250000000e+04
-6.068364843750000000e+04
-6.068425390625000000e+04
-6.068476953125000000e+04
-6.068555859375000000e+04
-6.068580859375000000e+04
-6.068636328125000000e+04
-6.068719140625000000e+04
-6.068724609375000000e+04
-6.068734765625000000e+04
-6.068716015625000000e+04
-6.068702343750000000e+04
-6.068689843750000000e+04
-6.068648437500000000e+04
-6.068645703125000000e+04
-6.068634765625000000e+04
-6.068614453125000000e+04
-6.068557421875000000e+04
-6.068525781250000000e+04
-6.068502343750000000e+04
-6.068461718750000000e+04
-6.068486328125000000e+04
-6.068536718750000000e+04
-6.068537500000000000e+04
-6.068592968750000000e+04
-6.068597265625000000e+04
-6.068603515625000000e+04
-6.068663671875000000e+04
-6.068773437500000000e+04
-6.068791406250000000e+04
-6.068938281250000000e+04
-6.069018359375000000e+04
-6.069091015625000000e+04
-6.069108984375000000e+04
-6.069121875000000000e+04
-6.069138281250000000e+04
-6.069153125000000000e+04
-6.069176171875000000e+04
-6.069183984375000000e+04
-6.069196875000000000e+04
-6.069236718750000000e+04
-6.069253515625000000e+04
-6.069264843750000000e+04
-6.069323828125000000e+04
-6.069370703125000000e+04
-6.069435937500000000e+04
-6.069604296875000000e+04
-6.069647265625000000e+04
-6.069703515625000000e+04
-6.069800781250000000e+04
-6.069822265625000000e+04
-6.069794531250000000e+04
-6.069732812500000000e+04
-6.069605468750000000e+04
-6.069566406250000000e+04
-6.069456640625000000e+04
-6.069346484375000000e+04
-6.069291796875000000e+04
-6.069266796875000000e+04
-6.069236718750000000e+04
-6.069177343750000000e+04
-6.069171875000000000e+04
-6.069159375000000000e+04
-6.069137890625000000e+04
-6.069157421875000000e+04
-6.069171093750000000e+04
-6.069202343750000000e+04
-6.069309375000000000e+04
-6.069422265625000000e+04
-6.069467968750000000e+04
-6.069601562500000000e+04
-6.069770703125000000e+04
-6.069821484375000000e+04
-6.069856250000000000e+04
-6.069869531250000000e+04
-6.069891015625000000e+04
-6.069922656250000000e+04
-6.069940625000000000e+04
-6.069952734375000000e+04
-6.069980859375000000e+04
-6.069989062500000000e+04
-6.069991406250000000e+04
-6.069999609375000000e+04
