-6.239661718750000000e+04
-6.238557812500000000e+04
-6.238247265625000000e+04
-6.237444140625000000e+04
-6.236595703125000000e+04
-6.235316796875000000e+04
-6.235128906250000000e+04
-6.234943750000000000e+04
-6.234887500000000000e+04
-6.234700000000000000e+04
-6.234632812500000000e+04
-6.234599218750000000e+04
-6.234410156250000000e+04
-6.234287109375000000e+04
-6.234305859375000000e+04
-6.234494531250000000e+04
-6.234814453125000000e+04
-6.234832031250000000e+04
-6.234859375000000000e+04
-6.234850390625000000e+04
-6.234846484375000000e+04
-6.234840625000000000e+04
-6.234832812500000000e+04
-6.234826562500000000e+04
-6.234822656250000000e+04
-6.234818750000000000e+04
-6.234814453125000000e+04
-6.234809765625000000e+04
-6.234762500000000000e+04
-6.234756640625000000e+04
-6.234771484375000000e+04
-6.234778125000000000e+04
-6.234697656250000000e+04
-6.234432031250000000e+04
-6.234409765625000000e+04
-6.234316015625000000e+04
-6.234319140625000000e+04
-6.234337890625000000e+04
-6.234408203125000000e+04
-6.234477734375000000e+04
-6.234501171875000000e+04
-6.234568750000000000e+04
-6.234654687500000000e+04
-6.234691796875000000e+04
-6.234698828125000000e+04
-6.234695703125000000e+04
-6.234686328125000000e+04
-6.234667187500000000e+04
-6.234646875000000000e+04
-6.234640625000000000e+04
-6.234619921875000000e+04
-6.234619140625000000e+04
-6.234631640625000000e+04
-6.234760937500000000e+04
-6.234807812500000000e+04
-6.234839062500000000e+04
-6.234841796875000000e+04
-6.234741406250000000e+04
-6.234645703125000000e+04
-6.234537109375000000e+04
-6.234491015625000000e+04
-6.234492187500000000e+04
-6.234501171875000000e+04
-6.234528906250000000e+04
-6.234594531250000000e+04
-6.234619140625000000e+04
-6.234646093750000000e+04
-6.234649218750000000e+04
-6.234565625000000000e+04
-6.234458203125000000e+04
-6.234492968750000000e+04
-6.234608984375000000e+04
-6.234638281250000000e+04
-6.234788671875000000e+04
-6.234912500000000000e+04
-6.234878906250000000e+04
-6.234540625000000000e+04
-6.234479687500000000e+04
-6.234199218750000000e+04
-6.234197265625000000e+04
-6.234195312500000000e+04
-6.234177734375000000e+04
-6.234177734375000000e+04
-6.234191796875000000e+04
-6.234191015625000000e+04
-6.234208593750000000e+04
-6.234220312500000000e+04
-6.234248046875000000e+04
-6.234352343750000000e+04
-6.234363671875000000e+04
-6.234400000000000000e+04
-6.234452734375000000e+04
-6.234530468750000000e+04
-6.234542187500000000e+04
-6.234553515625000000e+04
-6.234582812500000000e+04
-6.234620703125000000e+04
-6.234621875000000000e+04
-6.234621875000000000e+04
-6.234619140625000000e+04
-6.234612500000000000e+04
-6.234592578125000000e+04
-6.234581250000000000e+04
-6.234561328125000000e+04
-6.234597265625000000e+04
-6.234612109375000000e+04
-6.234676562500000000e+04
-6.234852343750000000e+04
-6.234864062500000000e+04
-6.234887500000000000e+04
-6.234898437500000000e+04
-6.234929296875000000e+04
-6.234938671875000000e+04
-6.234976171875000000e+04
-6.235011328125000000e+04
-6.235015234375000000e+04
-6.235017578125000000e+04
-6.235015234375000000e+04
-6.234929296875000000e+04
-6.234913281250000000e+04
-6.234807421875000000e+04
-6.234756250000000000e+04
-6.234486328125000000e+04
-6.234387890625000000e+04
-6.234369140625000000e+04
-6.234345703125000000e+04
-6.234342578125000000e+04
-6.234339453125000000e+04
-6.234299218750000000e+04
-6.234297265625000000e+04
-6.234320312500000000e+04
-6.234321484375000000e+04
-6.234321875000000000e+04
-6.234318750000000000e+04
-6.234312500000000000e+04
-6.234314062500000000e+04
-6.234369921875000000e+04
-6.234577734375000000e+04
-6.234633593750000000e+04
-6.234802343750000000e+04
-6.234992578125000000e+04
-6.234992187500000000e+04
-6.234971093750000000e+04
-6.234947265625000000e+04
-6.234833984375000000e+04
-6.234673828125000000e+04
-6.234470312500000000e+04
-6.234377343750000000e+04
-6.234375000000000000e+04
-6.234389453125000000e+04
-6.234500390625000000e+04
-6.234575390625000000e+04
-6.234627343750000000e+04
-6.234625000000000000e+04
-6.234594140625000000e+04
-6.234578906250000000e+04
-6.234565234375000000e+04
-6.234525000000000000e+04
-6.234509375000000000e+04
-6.234491796875000000e+04
-6.234472265625000000e+04
-6.234455859375000000e+04
-6.234440625000000000e+04
-6.234556640625000000e+04
-6.234632421875000000e+04
-6.234769531250000000e+04
-6.234810546875000000e+04
-6.234819140625000000e+04
-6.234790234375000000e+04
-6.234732812500000000e+04
-6.234570312500000000e+04
-6.234560937500000000e+04
-6.234534765625000000e+04
-6.234515625000000000e+04
-6.234501562500000000e+04
-6.234497265625000000e+04
-6.234425000000000000e+04
-6.234412500000000000e+04
-6.234382812500000000e+04
-6.233998046875000000e+04
-6.233984765625000000e+04
-6.233975390625000000e+04
-6.234020703125000000e+04
-6.234022656250000000e+04
-6.234034765625000000e+04
-6.234128515625000000e+04
-6.234150000000000000e+04
-6.234121093750000000e+04
-6.234117578125000000e+04
-6.234089062500000000e+04
-6.234095312500000000e+04
-6.234130078125000000e+04
-6.234158203125000000e+04
-6.234176562500000000e+04
-6.234278515625000000e+04
-6.234312500000000000e+04
-6.234350390625000000e+04
-6.234208593750000000e+04
-6.234180859375000000e+04
-6.234127343750000000e+04
-6.234027343750000000e+04
-6.234008593750000000e+04
-6.234002343750000000e+04
-6.234012890625000000e+04
-6.234016796875000000e+04
-6.234066406250000000e+04
-6.234135937500000000e+04
-6.234123046875000000e+04
-6.234093750000000000e+04
-6.234085937500000000e+04
-6.234082421875000000e+04
-6.234183593750000000e+04
-6.234216015625000000e+04
-6.234232031250000000e+04
-6.234355078125000000e+04
-6.234369921875000000e+04
-6.234362500000000000e+04
-6.234357421875000000e+04
-6.234314062500000000e+04
-6.234285546875000000e+04
-6.234248046875000000e+04
-6.234236718750000000e+04
-6.234224218750000000e+04
-6.234147656250000000e+04
-6.234056640625000000e+04
-6.234005468750000000e+04
-6.233962890625000000e+04
-6.233901171875000000e+04
-6.233893359375000000e+04
-6.233891406250000000e+04
-6.234057421875000000e+04
-6.234124218750000000e+04
-6.234128125000000000e+04
-6.234089062500000000e+04
-6.234083203125000000e+04
-6.234080859375000000e+04
-6.234101562500000000e+04
-6.234107031250000000e+04
-6.234145703125000000e+04
-6.234148046875000000e+04
-6.234146093750000000e+04
-6.234135937500000000e+04
-6.234119140625000000e+04
-6.234096875000000000e+04
-6.233933984375000000e+04
-6.233852343750000000e+04
-6.233841406250000000e+04
-6.233718750000000000e+04
-6.233711718750000000e+04
-6.233705468750000000e+04
-6.233700390625000000e+04
-6.233712890625000000e+04
-6.233730468750000000e+04
-6.233778125000000000e+04
-6.233792187500000000e+04
-6.233835546875000000e+04
-6.233922656250000000e+04
-6.233977734375000000e+04
-6.233990625000000000e+04
-6.234003125000000000e+04
-6.234107421875000000e+04
-6.234123828125000000e+04
-6.234139843750000000e+04
-6.234169140625000000e+04
-6.234201953125000000e+04
-6.234222265625000000e+04
-6.234225781250000000e+04
-6.234183593750000000e+04
-6.233988671875000000e+04
-6.233968750000000000e+04
-6.233950000000000000e+04
-6.233884375000000000e+04
-6.233852343750000000e+04
-6.233842187500000000e+04
-6.233866406250000000e+04
-6.233917578125000000e+04
-6.233931640625000000e+04
-6.233947656250000000e+04
-6.233901953125000000e+04
-6.233804687500000000e+04
-6.233799609375000000e+04
-6.233851953125000000e+04
-6.233862109375000000e+04
-6.233895312500000000e+04
-6.233976171875000000e+04
-6.234075781250000000e+04
-6.234105468750000000e+04
-6.234115234375000000e+04
-6.234160156250000000e+04
-6.234140625000000000e+04
-6.234044531250000000e+04
-6.234027343750000000e+04
-6.233946093750000000e+04
-6.233819140625000000e+04
-6.233811718750000000e+04
-6.233800390625000000e+04
-6.233791796875000000e+04
-6.233786328125000000e+04
-6.233793359375000000e+04
-6.233798046875000000e+04
-6.233813671875000000e+04
-6.233921484375000000e+04
-6.234011328125000000e+04
-6.234025390625000000e+04
-6.234111718750000000e+04
-6.234272656250000000e+04
-6.234292187500000000e+04
-6.234300781250000000e+04
-6.234326953125000000e+04
-6.234336328125000000e+04
-6.234335937500000000e+04
-6.234305078125000000e+04
-6.234206250000000000e+04
-6.234193359375000000e+04
-6.234215625000000000e+04
-6.234220703125000000e+04
-6.234251953125000000e+04
-6.234256250000000000e+04
-6.234259765625000000e+04
-6.234275781250000000e+04
-6.234243750000000000e+04
-6.234206250000000000e+04
-6.234171484375000000e+04
-6.234169140625000000e+04
-6.234292187500000000e+04
-6.234300781250000000e+04
-6.234316796875000000e+04
-6.234323828125000000e+04
-6.234338281250000000e+04
-6.234368359375000000e+04
-6.234359765625000000e+04
-6.234266406250000000e+04
-6.234077734375000000e+04
-6.233953515625000000e+04
-6.233868750000000000e+04
-6.233860156250000000e+04
-6.233861718750000000e+04
-6.233906640625000000e+04
-6.233915234375000000e+04
-6.233952343750000000e+04
-6.233889453125000000e+04
-6.233712109375000000e+04
-6.233672656250000000e+04
-6.233640625000000000e+04
-6.233964453125000000e+04
-6.234165234375000000e+04
-6.234179296875000000e+04
-6.234176171875000000e+04
-6.234182031250000000e+04
-6.234185156250000000e+04
-6.234192578125000000e+04
-6.234203125000000000e+04
-6.234180468750000000e+04
-6.234172265625000000e+04
-6.234029687500000000e+04
-6.233989453125000000e+04
-6.233976953125000000e+04
-6.233971875000000000e+04
-6.233950390625000000e+04
-6.233930078125000000e+04
-6.233875781250000000e+04
-6.233678125000000000e+04
-6.233665625000000000e+04
-6.233691406250000000e+04
-6.233710937500000000e+04
-6.233767968750000000e+04
-6.233766796875000000e+04
-6.233750000000000000e+04
-6.233713671875000000e+04
-6.233684765625000000e+04
-6.233673828125000000e+04
-6.233768750000000000e+04
-6.233823437500000000e+04
-6.233840625000000000e+04
-6.233846093750000000e+04
-6.233860546875000000e+04
-6.233866015625000000e+04
-6.233906250000000000e+04
-6.233789062500000000e+04
-6.233678515625000000e+04
-6.233610937500000000e+04
-6.233555859375000000e+04
-6.233510546875000000e+04
-6.233497265625000000e+04
-6.233504687500000000e+04
-6.233509765625000000e+04
-6.233516015625000000e+04
-6.233522656250000000e+04
-6.233538671875000000e+04
-6.233596093750000000e+04
-6.233550781250000000e+04
-6.233539843750000000e+04
-6.233494921875000000e+04
-6.233493750000000000e+04
-6.233535546875000000e+04
-6.233587500000000000e+04
-6.233759765625000000e+04
-6.233914062500000000e+04
-6.233932812500000000e+04
-6.233921484375000000e+04
-6.233916015625000000e+04
-6.233903125000000000e+04
-6.233896093750000000e+04
-6.233880468750000000e+04
-6.233851171875000000e+04
-6.233798046875000000e+04
-6.233786718750000000e+04
-6.233775000000000000e+04
-6.233749609375000000e+04
-6.233675000000000000e+04
-6.233644140625000000e+04
-6.233590625000000000e+04
-6.233601562500000000e+04
-6.233693359375000000e+04
-6.233719531250000000e+04
-6.233730859375000000e+04
-6.233766406250000000e+04
-6.233777734375000000e+04
-6.233755078125000000e+04
-6.233726953125000000e+04
-6.233571093750000000e+04
-6.233562500000000000e+04
-6.233554687500000000e+04
-6.233541015625000000e+04
-6.233547265625000000e+04
-6.233629296875000000e+04
-6.233670703125000000e+04
-6.233848046875000000e+04
-6.233822656250000000e+04
-6.233761718750000000e+04
-6.233706250000000000e+04
-6.233665625000000000e+04
-6.233661328125000000e+04
-6.233620703125000000e+04
-6.233605859375000000e+04
-6.233583593750000000e+04
-6.233483203125000000e+04
-6.233450781250000000e+04
-6.233436718750000000e+04
-6.233409375000000000e+04
-6.233401171875000000e+04
-6.233384765625000000e+04
-6.233380078125000000e+04
-6.233357421875000000e+04
-6.233351562500000000e+04
-6.233345312500000000e+04
-6.233345703125000000e+04
-6.233370703125000000e+04
-6.233385156250000000e+04
-6.233419921875000000e+04
-6.233450390625000000e+04
-6.233515234375000000e+04
-6.233593750000000000e+04
-6.233602343750000000e+04
-6.233633984375000000e+04
-6.233643359375000000e+04
-6.233649218750000000e+04
-6.233661718750000000e+04
-6.233661718750000000e+04
-6.233654296875000000e+04
-6.233649218750000000e+04
-6.233638281250000000e+04
-6.233617578125000000e+04
-6.233590625000000000e+04
-6.233579296875000000e+04
-6.233575000000000000e+04
-6.233572265625000000e+04
-6.233573828125000000e+04
-6.233571484375000000e+04
-6.233568750000000000e+04
-6.233564843750000000e+04
-6.233560156250000000e+04
-6.233482031250000000e+04
-6.233399218750000000e+04
-6.233341015625000000e+04
-6.233467578125000000e+04
-6.233603125000000000e+04
-6.233635156250000000e+04
-6.233704687500000000e+04
-6.233696093750000000e+04
-6.233628125000000000e+04
-6.233607421875000000e+04
-6.233532812500000000e+04
-6.233350781250000000e+04
-6.233290625000000000e+04
-6.233234765625000000e+04
-6.233209375000000000e+04
-6.233133984375000000e+04
-6.233110937500000000e+04
-6.233097656250000000e+04
-6.233105468750000000e+04
-6.233130468750000000e+04
-6.233191796875000000e+04
-6.233296484375000000e+04
-6.233359765625000000e+04
-6.233546093750000000e+04
-6.233607812500000000e+04
-6.233551171875000000e+04
-6.233520703125000000e+04
-6.233510937500000000e+04
-6.233474609375000000e+04
-6.233469921875000000e+04
-6.233466015625000000e+04
-6.233459765625000000e+04
-6.233437890625000000e+04
-6.233405468750000000e+04
-6.233360937500000000e+04
-6.233285937500000000e+04
-6.233085156250000000e+04
-6.233033984375000000e+04
-6.233035937500000000e+04
-6.233055859375000000e+04
-6.233103515625000000e+04
-6.233116015625000000e+04
-6.233152734375000000e+04
-6.233164062500000000e+04
-6.233226953125000000e+04
-6.233223828125000000e+04
-6.233221093750000000e+04
-6.233219140625000000e+04
-6.233222265625000000e+04
-6.233225781250000000e+04
-6.233254687500000000e+04
-6.233262890625000000e+04
-6.233300781250000000e+04
-6.233347656250000000e+04
-6.233466406250000000e+04
-6.233478906250000000e+04
-6.233525000000000000e+04
-6.233546093750000000e+04
-6.233497265625000000e+04
-6.233483203125000000e+04
-6.233466796875000000e+04
-6.233407031250000000e+04
-6.233191406250000000e+04
-6.233181640625000000e+04
-6.233167578125000000e+04
-6.233171093750000000e+04
-6.233175781250000000e+04
-6.233335546875000000e+04
-6.233351171875000000e+04
-6.233373437500000000e+04
-6.233375781250000000e+04
-6.233376953125000000e+04
-6.233302734375000000e+04
-6.233286328125000000e+04
-6.233185546875000000e+04
-6.233085937500000000e+04
-6.232972656250000000e+04
-6.232971093750000000e+04
-6.233003515625000000e+04
-6.233033203125000000e+04
-6.233119140625000000e+04
-6.233171093750000000e+04
-6.233186328125000000e+04
-6.233193750000000000e+04
-6.233208203125000000e+04
-6.233214843750000000e+04
-6.233248046875000000e+04
-6.233234375000000000e+04
-6.233237500000000000e+04
-6.233238281250000000e+04
-6.233232812500000000e+04
-6.233230078125000000e+04
-6.233221093750000000e+04
-6.233191796875000000e+04
-6.233180859375000000e+04
-6.233165234375000000e+04
-6.233026953125000000e+04
-6.233011718750000000e+04
-6.232978906250000000e+04
-6.232871875000000000e+04
-6.232791796875000000e+04
-6.232746093750000000e+04
-6.232765625000000000e+04
-6.232919140625000000e+04
-6.232975781250000000e+04
-6.232987109375000000e+04
-6.232990625000000000e+04
-6.232979296875000000e+04
-6.232973046875000000e+04
-6.232905078125000000e+04
-6.232809765625000000e+04
-6.232787890625000000e+04
-6.232777343750000000e+04
-6.232767968750000000e+04
-6.232758593750000000e+04
-6.232733984375000000e+04
-6.232713671875000000e+04
-6.232710546875000000e+04
-6.232794921875000000e+04
-6.232845312500000000e+04
-6.232866796875000000e+04
-6.232889843750000000e+04
-6.232939062500000000e+04
-6.233131250000000000e+04
-6.233158593750000000e+04
-6.233208984375000000e+04
-6.233273046875000000e+04
-6.233314062500000000e+04
-6.233330078125000000e+04
-6.233316796875000000e+04
-6.233300781250000000e+04
-6.233285546875000000e+04
-6.233280859375000000e+04
-6.233275390625000000e+04
-6.233257031250000000e+04
-6.233239843750000000e+04
-6.233030078125000000e+04
-6.233001171875000000e+04
-6.232991015625000000e+04
-6.232974609375000000e+04
-6.232953906250000000e+04
-6.232914843750000000e+04
-6.232935156250000000e+04
-6.232989062500000000e+04
-6.233073828125000000e+04
-6.233041406250000000e+04
-6.233025000000000000e+04
-6.233017187500000000e+04
-6.232998046875000000e+04
-6.233005859375000000e+04
-6.233020703125000000e+04
-6.233081250000000000e+04
-6.233117968750000000e+04
-6.233134375000000000e+04
-6.233141796875000000e+04
-6.233156250000000000e+04
-6.233162890625000000e+04
-6.233176953125000000e+04
-6.233232812500000000e+04
-6.233230859375000000e+04
-6.233220703125000000e+04
-6.233207421875000000e+04
-6.233141406250000000e+04
-6.232948828125000000e+04
-6.232912109375000000e+04
-6.232804296875000000e+04
-6.232827343750000000e+04
-6.232850390625000000e+04
-6.232887109375000000e+04
-6.232908203125000000e+04
-6.232883203125000000e+04
-6.232876562500000000e+04
-6.232869921875000000e+04
-6.232855859375000000e+04
-6.232821875000000000e+04
-6.232805859375000000e+04
-6.232819140625000000e+04
-6.232830859375000000e+04
-6.232837890625000000e+04
-6.232845312500000000e+04
-6.232862890625000000e+04
-6.232954687500000000e+04
-6.232989062500000000e+04
-6.233015234375000000e+04
-6.232987500000000000e+04
-6.232929296875000000e+04
-6.232883984375000000e+04
-6.232873437500000000e+04
-6.232837109375000000e+04
-6.232811328125000000e+04
-6.232808593750000000e+04
-6.232800390625000000e+04
-6.232797265625000000e+04
-6.232795703125000000e+04
-6.232789453125000000e+04
-6.232775000000000000e+04
-6.232793359375000000e+04
-6.232826953125000000e+04
-6.232857421875000000e+04
-6.232869531250000000e+04
-6.232880859375000000e+04
-6.232940234375000000e+04
-6.232938671875000000e+04
-6.232936328125000000e+04
-6.232935156250000000e+04
-6.232935937500000000e+04
-6.233015625000000000e+04
-6.233021484375000000e+04
-6.233042187500000000e+04
-6.232985546875000000e+04
-6.232905468750000000e+04
-6.232708203125000000e+04
-6.232602734375000000e+04
-6.232580468750000000e+04
-6.232570703125000000e+04
-6.232531250000000000e+04
-6.232533984375000000e+04
-6.232538671875000000e+04
-6.232564062500000000e+04
-6.232614062500000000e+04
-6.232631640625000000e+04
-6.232659375000000000e+04
-6.232679687500000000e+04
-6.232703906250000000e+04
-6.232720703125000000e+04
-6.232687109375000000e+04
-6.232593359375000000e+04
-6.232300000000000000e+04
-6.232243750000000000e+04
-6.232217187500000000e+04
-6.232248437500000000e+04
-6.232265234375000000e+04
-6.232469531250000000e+04
-6.232584765625000000e+04
-6.232662500000000000e+04
-6.232700390625000000e+04
-6.232992578125000000e+04
-6.233022656250000000e+04
-6.233054296875000000e+04
-6.233058984375000000e+04
-6.233048828125000000e+04
-6.233036718750000000e+04
-6.233014062500000000e+04
-6.232991796875000000e+04
-6.232944531250000000e+04
-6.232907031250000000e+04
-6.232870703125000000e+04
-6.232798828125000000e+04
-6.232770312500000000e+04
-6.232767187500000000e+04
-6.232735546875000000e+04
-6.232696484375000000e+04
-6.232602734375000000e+04
-6.232591015625000000e+04
-6.232568750000000000e+04
-6.232527343750000000e+04
-6.232505078125000000e+04
-6.232464453125000000e+04
-6.232456250000000000e+04
-6.232430859375000000e+04
-6.232372265625000000e+04
-6.232356640625000000e+04
-6.232326953125000000e+04
-6.232316015625000000e+04
-6.232332812500000000e+04
-6.232381250000000000e+04
-6.232477343750000000e+04
-6.232548437500000000e+04
-6.232697656250000000e+04
-6.232912500000000000e+04
-6.232925781250000000e+04
-6.232888671875000000e+04
-6.232716406250000000e+04
-6.232671875000000000e+04
-6.232432031250000000e+04
-6.232421875000000000e+04
-6.232411328125000000e+04
-6.232362109375000000e+04
-6.232353125000000000e+04
-6.232316015625000000e+04
-6.232291796875000000e+04
-6.232284375000000000e+04
-6.232301171875000000e+04
-6.232392578125000000e+04
-6.232449609375000000e+04
-6.232482031250000000e+04
-6.232489062500000000e+04
-6.232475781250000000e+04
-6.232417968750000000e+04
-6.232360937500000000e+04
-6.232349609375000000e+04
-6.232337890625000000e+04
-6.232223828125000000e+04
-6.232205078125000000e+04
-6.232158203125000000e+04
-6.232117578125000000e+04
-6.232050390625000000e+04
-6.232042578125000000e+04
-6.232037109375000000e+04
-6.232032031250000000e+04
-6.232325781250000000e+04
-6.232369921875000000e+04
-6.232370703125000000e+04
-6.232362109375000000e+04
-6.232353906250000000e+04
-6.232292187500000000e+04
-6.232211718750000000e+04
-6.232126953125000000e+04
-6.232112890625000000e+04
-6.232121093750000000e+04
-6.232192578125000000e+04
-6.232248828125000000e+04
-6.232272656250000000e+04
-6.232282812500000000e+04
-6.232176171875000000e+04
-6.232146484375000000e+04
-6.232148828125000000e+04
-6.232151171875000000e+04
-6.232253125000000000e+04
-6.232279687500000000e+04
-6.232291406250000000e+04
-6.232597656250000000e+04
-6.232607812500000000e+04
-6.232614062500000000e+04
-6.232607421875000000e+04
-6.232573437500000000e+04
-6.232560156250000000e+04
-6.232455859375000000e+04
-6.232435937500000000e+04
-6.232377734375000000e+04
-6.232237890625000000e+04
-6.232109765625000000e+04
-6.232103515625000000e+04
-6.232167187500000000e+04
-6.232205859375000000e+04
-6.232219140625000000e+04
-6.232260937500000000e+04
-6.232274609375000000e+04
-6.232392578125000000e+04
-6.232401953125000000e+04
-6.232404687500000000e+04
-6.232381250000000000e+04
-6.232294921875000000e+04
-6.232267187500000000e+04
-6.232287500000000000e+04
-6.232316406250000000e+04
-6.232321875000000000e+04
-6.232320703125000000e+04
-6.232304687500000000e+04
-6.232334375000000000e+04
-6.232349609375000000e+04
-6.232379687500000000e+04
-6.232460937500000000e+04
-6.232453906250000000e+04
-6.232432031250000000e+04
-6.232412500000000000e+04
-6.232401171875000000e+04
-6.232389453125000000e+04
-6.232364843750000000e+04
-6.232351562500000000e+04
-6.232338281250000000e+04
-6.232325390625000000e+04
-6.232312500000000000e+04
-6.232300390625000000e+04
-6.232298437500000000e+04
-6.232374609375000000e+04
-6.232384375000000000e+04
-6.232392578125000000e+04
-6.232408203125000000e+04
-6.232410546875000000e+04
-6.232331640625000000e+04
-6.232282812500000000e+04
-6.232200390625000000e+04
-6.232189843750000000e+04
-6.232074609375000000e+04
-6.232053515625000000e+04
-6.231959765625000000e+04
-6.231934765625000000e+04
-6.231921484375000000e+04
-6.231921093750000000e+04
-6.231924609375000000e+04
-6.231926171875000000e+04
-6.231936328125000000e+04
-6.231985156250000000e+04
-6.232066406250000000e+04
-6.232108593750000000e+04
-6.232251562500000000e+04
-6.232279687500000000e+04
-6.232310156250000000e+04
-6.232302343750000000e+04
-6.232288671875000000e+04
-6.232259375000000000e+04
-6.232247265625000000e+04
-6.232206250000000000e+04
-6.232167187500000000e+04
-6.231975000000000000e+04
-6.231955859375000000e+04
-6.231886718750000000e+04
-6.231834375000000000e+04
-6.231837109375000000e+04
-6.231886718750000000e+04
-6.231896484375000000e+04
-6.231898046875000000e+04
-6.231898046875000000e+04
-6.231857031250000000e+04
-6.231810156250000000e+04
-6.231799609375000000e+04
-6.231768359375000000e+04
-6.231766015625000000e+04
-6.231770703125000000e+04
-6.231778515625000000e+04
-6.231827734375000000e+04
-6.231911718750000000e+04
-6.231984375000000000e+04
-6.232036328125000000e+04
-6.232109375000000000e+04
-6.232113281250000000e+04
-6.232117968750000000e+04
-6.232146875000000000e+04
-6.232145703125000000e+04
-6.232138671875000000e+04
-6.232134765625000000e+04
-6.232032812500000000e+04
-6.232021484375000000e+04
-6.231998046875000000e+04
-6.231928906250000000e+04
-6.231903515625000000e+04
-6.231869531250000000e+04
-6.231838281250000000e+04
-6.231837109375000000e+04
-6.231845703125000000e+04
-6.231862109375000000e+04
-6.231940234375000000e+04
-6.232025390625000000e+04
-6.232166015625000000e+04
-6.232215625000000000e+04
-6.232209375000000000e+04
-6.232142187500000000e+04
-6.231940234375000000e+04
-6.231917187500000000e+04
-6.231871484375000000e+04
-6.231816406250000000e+04
-6.231762500000000000e+04
-6.231770312500000000e+04
-6.231907031250000000e+04
-6.232034765625000000e+04
-6.232125390625000000e+04
-6.232145703125000000e+04
-6.232155468750000000e+04
-6.232148437500000000e+04
-6.232141796875000000e+04
-6.232011718750000000e+04
-6.231951562500000000e+04
-6.231929296875000000e+04
-6.231905859375000000e+04
-6.231835937500000000e+04
-6.231789453125000000e+04
-6.231675781250000000e+04
-6.231641406250000000e+04
-6.231639843750000000e+04
-6.231648437500000000e+04
-6.231676953125000000e+04
-6.231705468750000000e+04
-6.231721093750000000e+04
-6.231737890625000000e+04
-6.231773046875000000e+04
-6.231808593750000000e+04
-6.231860546875000000e+04
-6.231920312500000000e+04
-6.231994140625000000e+04
-6.232038671875000000e+04
-6.232054296875000000e+04
-6.232058203125000000e+04
-6.232057812500000000e+04
-6.232055859375000000e+04
-6.231908593750000000e+04
-6.231834375000000000e+04
-6.231796875000000000e+04
-6.231728515625000000e+04
-6.231709765625000000e+04
-6.231735156250000000e+04
-6.231780859375000000e+04
-6.231821875000000000e+04
-6.231844531250000000e+04
-6.231914843750000000e+04
-6.231937109375000000e+04
-6.232097656250000000e+04
-6.232115625000000000e+04
-6.232129296875000000e+04
-6.232098828125000000e+04
-6.232013671875000000e+04
-6.231882812500000000e+04
-6.231830859375000000e+04
-6.231751562500000000e+04
-6.231731640625000000e+04
-6.231729296875000000e+04
-6.231728125000000000e+04
-6.231664062500000000e+04
-6.231655078125000000e+04
-6.231559375000000000e+04
-6.231516015625000000e+04
-6.231471875000000000e+04
-6.231451562500000000e+04
-6.231432031250000000e+04
-6.231423437500000000e+04
-6.231418359375000000e+04
-6.231410546875000000e+04
-6.231408203125000000e+04
-6.231401562500000000e+04
-6.231397265625000000e+04
-6.231397265625000000e+04
-6.231410937500000000e+04
-6.231418359375000000e+04
-6.231435546875000000e+04
-6.231525781250000000e+04
-6.231565234375000000e+04
-6.231628125000000000e+04
-6.231641015625000000e+04
-6.231682812500000000e+04
-6.231738671875000000e+04
-6.231744921875000000e+04
-6.231774218750000000e+04
-6.231785156250000000e+04
-6.231778906250000000e+04
-6.231775390625000000e+04
-6.231771484375000000e+04
-6.231754687500000000e+04
-6.231746484375000000e+04
