1.187997460365295410e+00 6.853315353393554688e+00 -6.852175712585449219e+00 6.853315353393554688e+00 -1.738419055938720703e+00 3.673829793930053711e+00 -6.852175712585449219e+00 3.673829793930053711e+00 1.295248985290527344e+01
1.247980213165283203e+01 1.024256324768066406e+01 -4.654865264892578125e+00 1.024256324768066406e+01 1.836574363708496094e+01 -1.432311248779296875e+01 -4.654865264892578125e+00 -1.432311248779296875e+01 4.251210403442382812e+01
1.608836174011230469e+01 1.077622795104980469e+01 -4.042590141296386719e+00 1.077622795104980469e+01 2.429489898681640625e+01 -1.717447090148925781e+01 -4.042590141296386719e+00 -1.717447090148925781e+01 4.953873443603515625e+01
2.400308036804199219e+01 1.195880413055419922e+01 -2.108213663101196289e+00 1.195880413055419922e+01 3.881848144531250000e+01 -2.346851730346679688e+01 -2.108213663101196289e+00 -2.346851730346679688e+01 6.547588348388671875e+01
2.851339149475097656e+01 1.242411231994628906e+01 7.033312916755676270e-01 1.242411231994628906e+01 5.187451553344726562e+01 -2.865555381774902344e+01 7.033312916755676270e-01 -2.865555381774902344e+01 7.686189270019531250e+01
5.713543891906738281e+00 1.297792911529541016e+01 6.693524837493896484e+00 1.297792911529541016e+01 3.926157760620117188e+01 -2.691169166564941406e+01 6.693524837493896484e+00 -2.691169166564941406e+01 4.295563125610351562e+01
-1.759652733802795410e+00 1.550677871704101562e+01 8.035223007202148438e+00 1.550677871704101562e+01 2.737484931945800781e+01 -2.168974876403808594e+01 8.035223007202148438e+00 -2.168974876403808594e+01 2.479266357421875000e+01
-7.639480590820312500e+00 1.803240776062011719e+01 8.937450408935546875e+00 1.803240776062011719e+01 1.832988929748535156e+01 -1.614158439636230469e+01 8.937450408935546875e+00 -1.614158439636230469e+01 1.198939132690429688e+01
-8.967290878295898438e+00 1.866609382629394531e+01 8.970718383789062500e+00 1.866609382629394531e+01 1.649958229064941406e+01 -1.456562614440917969e+01 8.970718383789062500e+00 -1.456562614440917969e+01 9.722863197326660156e+00
-1.180419635772705078e+01 2.022088241577148438e+01 8.673232078552246094e+00 2.022088241577148438e+01 1.298118019104003906e+01 -1.002470111846923828e+01 8.673232078552246094e+00 -1.002470111846923828e+01 6.652928829193115234e+00
-1.241970252990722656e+01 2.060159683227539062e+01 8.486268997192382812e+00 2.060159683227539062e+01 1.231298065185546875e+01 -8.517803192138671875e+00 8.486268997192382812e+00 -8.517803192138671875e+00 6.837819099426269531e+00
-1.266490745544433594e+01 2.077653503417968750e+01 8.395870208740234375e+00 2.077653503417968750e+01 1.202485752105712891e+01 -7.741111278533935547e+00 8.395870208740234375e+00 -7.741111278533935547e+00 7.130564212799072266e+00
-1.394874668121337891e+01 2.122900009155273438e+01 7.790988922119140625e+00 2.122900009155273438e+01 1.064176750183105469e+01 -2.913792848587036133e+00 7.790988922119140625e+00 -2.913792848587036133e+00 1.115056228637695312e+01
-1.914527893066406250e+01 2.120374298095703125e+01 5.470264911651611328e+00 2.120374298095703125e+01 9.498817443847656250e+00 1.784425139427185059e+00 5.470264911651611328e+00 1.784425139427185059e+00 1.769267845153808594e+01
-2.233833885192871094e+01 2.031505775451660156e+01 3.928813934326171875e+00 2.031505775451660156e+01 8.298193931579589844e+00 3.523663282394409180e+00 3.928813934326171875e+00 3.523663282394409180e+00 2.001567268371582031e+01
-2.939543533325195312e+01 1.628663444519042969e+01 -4.200361371040344238e-01 1.628663444519042969e+01 6.421116828918457031e+00 5.359259605407714844e+00 -4.200361371040344238e-01 5.359259605407714844e+00 2.279332542419433594e+01
-2.346335220336914062e+01 7.634112834930419922e+00 -3.376541376113891602e+00 7.634112834930419922e+00 2.156892204284667969e+01 -1.839348196983337402e+00 -3.376541376113891602e+00 -1.839348196983337402e+00 3.450397872924804688e+01
-2.106959342956542969e+01 6.444293022155761719e+00 -3.225026130676269531e+00 6.444293022155761719e+00 2.477460670471191406e+01 -3.436287403106689453e+00 -3.225026130676269531e+00 -3.436287403106689453e+00 3.677376556396484375e+01
-7.327643394470214844e+00 1.223813891410827637e+00 -1.513022780418395996e+00 1.223813891410827637e+00 3.837812042236328125e+01 -1.057046127319335938e+01 -1.513022780418395996e+00 -1.057046127319335938e+01 4.650006866455078125e+01
7.412780761718750000e+00 -2.132845163345336914e+00 3.536728322505950928e-01 -2.132845163345336914e+00 4.650072860717773438e+01 -1.528220558166503906e+01 3.536728322505950928e-01 -1.528220558166503906e+01 5.335374832153320312e+01
1.293754673004150391e+01 -2.982732057571411133e+00 9.700588583946228027e-01 -2.982732057571411133e+00 4.837183380126953125e+01 -1.647237777709960938e+01 9.700588583946228027e-01 -1.647237777709960938e+01 5.519344329833984375e+01
1.874448776245117188e+01 -3.661492347717285156e+00 1.552024602890014648e+00 -3.661492347717285156e+00 4.981002807617187500e+01 -1.733982467651367188e+01 1.552024602890014648e+00 -1.733982467651367188e+01 5.684487152099609375e+01
2.761001586914062500e+01 -4.265289783477783203e+00 2.473830223083496094e+00 -4.265289783477783203e+00 5.119452667236328125e+01 -1.811838340759277344e+01 2.473830223083496094e+00 -1.811838340759277344e+01 5.857062530517578125e+01
3.355944824218750000e+01 -4.396564960479736328e+00 3.069966554641723633e+00 -4.396564960479736328e+00 5.169223785400390625e+01 -1.825829887390136719e+01 3.069966554641723633e+00 -1.825829887390136719e+01 5.922700119018554688e+01
3.652045440673828125e+01 -4.387943744659423828e+00 3.329606056213378906e+00 -4.387943744659423828e+00 5.185911178588867188e+01 -1.822893714904785156e+01 3.329606056213378906e+00 -1.822893714904785156e+01 5.943452072143554688e+01
3.941355895996093750e+01 -4.334609031677246094e+00 3.565435647964477539e+00 -4.334609031677246094e+00 5.197117233276367188e+01 -1.816090583801269531e+01 3.565435647964477539e+00 -1.816090583801269531e+01 5.953603363037109375e+01
4.224310684204101562e+01 -4.207458019256591797e+00 3.769075870513916016e+00 -4.207458019256591797e+00 5.203121185302734375e+01 -1.807085990905761719e+01 3.769075870513916016e+00 -1.807085990905761719e+01 5.957377624511718750e+01
4.500267410278320312e+01 -4.049863815307617188e+00 3.963533878326416016e+00 -4.049863815307617188e+00 5.208929443359375000e+01 -1.795645141601562500e+01 3.963533878326416016e+00 -1.795645141601562500e+01 5.951693725585937500e+01
6.546270751953125000e+01 -2.998100817203521729e-01 6.589639186859130859e+00 -2.998100817203521729e-01 5.268666839599609375e+01 -1.517399787902832031e+01 6.589639186859130859e+00 -1.517399787902832031e+01 5.608728408813476562e+01
6.849753570556640625e+01 1.711889028549194336e+00 1.045854091644287109e+01 1.711889028549194336e+00 5.301277923583984375e+01 -1.258243560791015625e+01 1.045854091644287109e+01 -1.258243560791015625e+01 5.355150604248046875e+01
6.521385955810546875e+01 1.129974126815795898e+00 1.400968837738037109e+01 1.129974126815795898e+00 5.286644744873046875e+01 -1.024542808532714844e+01 1.400968837738037109e+01 -1.024542808532714844e+01 5.264573669433593750e+01
6.313383102416992188e+01 4.514819383621215820e-01 1.521280479431152344e+01 4.514819383621215820e-01 5.265435791015625000e+01 -9.116204261779785156e+00 1.521280479431152344e+01 -9.116204261779785156e+00 5.249753952026367188e+01
3.528326416015625000e+01 -5.708352565765380859e+00 1.096275615692138672e+01 -5.708352565765380859e+00 4.999327087402343750e+01 2.291093111038208008e+00 1.096275615692138672e+01 2.291093111038208008e+00 4.819204711914062500e+01
2.948563194274902344e+01 -5.627380847930908203e+00 9.331895828247070312e+00 -5.627380847930908203e+00 4.622854614257812500e+01 7.301033496856689453e+00 9.331895828247070312e+00 7.301033496856689453e+00 5.264694976806640625e+01
2.917345619201660156e+01 -5.724840164184570312e+00 9.405485153198242188e+00 -5.724840164184570312e+00 4.594988632202148438e+01 7.764822483062744141e+00 9.405485153198242188e+00 7.764822483062744141e+00 5.313247680664062500e+01
2.682927513122558594e+01 -5.877454280853271484e+00 1.071670818328857422e+01 -5.877454280853271484e+00 4.293132781982421875e+01 1.004451084136962891e+01 1.071670818328857422e+01 1.004451084136962891e+01 5.407737350463867188e+01
2.595734405517578125e+01 -5.547921657562255859e+00 1.116069316864013672e+01 -5.547921657562255859e+00 4.152726364135742188e+01 1.011633300781250000e+01 1.116069316864013672e+01 1.011633300781250000e+01 5.320425033569335938e+01
2.496339416503906250e+01 -5.016073226928710938e+00 1.167129516601562500e+01 -5.016073226928710938e+00 3.982627105712890625e+01 9.870341300964355469e+00 1.167129516601562500e+01 9.870341300964355469e+00 5.174956512451171875e+01
2.294411087036132812e+01 -3.529154539108276367e+00 1.244112873077392578e+01 -3.529154539108276367e+00 3.601170730590820312e+01 8.716002464294433594e+00 1.244112873077392578e+01 8.716002464294433594e+00 4.748426055908203125e+01
2.135844612121582031e+01 -1.977274179458618164e+00 1.276365375518798828e+01 -1.977274179458618164e+00 3.284300994873046875e+01 7.375463485717773438e+00 1.276365375518798828e+01 7.375463485717773438e+00 4.379514312744140625e+01
2.084103012084960938e+01 -1.440675377845764160e+00 1.285927009582519531e+01 -1.440675377845764160e+00 3.180797958374023438e+01 6.868889331817626953e+00 1.285927009582519531e+01 6.868889331817626953e+00 4.254992675781250000e+01
1.948525619506835938e+01 2.882455885410308838e-01 1.310957336425781250e+01 2.882455885410308838e-01 2.868151092529296875e+01 5.302870273590087891e+00 1.310957336425781250e+01 5.302870273590087891e+00 3.906807327270507812e+01
1.761911964416503906e+01 3.725923776626586914e+00 1.324226951599121094e+01 3.725923776626586914e+00 2.371853828430175781e+01 2.545060396194458008e+00 1.324226951599121094e+01 2.545060396194458008e+00 3.479209518432617188e+01
1.727287292480468750e+01 6.618460655212402344e+00 1.340735530853271484e+01 6.618460655212402344e+00 2.009498405456542969e+01 5.308961868286132812e-01 1.340735530853271484e+01 5.308961868286132812e-01 3.221281051635742188e+01
1.777421379089355469e+01 1.066390132904052734e+01 1.325948238372802734e+01 1.066390132904052734e+01 1.652618026733398438e+01 -1.810123682022094727e+00 1.325948238372802734e+01 -1.810123682022094727e+00 3.012538719177246094e+01
1.799278831481933594e+01 1.147872924804687500e+01 1.317070388793945312e+01 1.147872924804687500e+01 1.599114036560058594e+01 -2.279089450836181641e+00 1.317070388793945312e+01 -2.279089450836181641e+00 2.971628761291503906e+01
1.854056549072265625e+01 1.310554409027099609e+01 1.298900508880615234e+01 1.310554409027099609e+01 1.491230869293212891e+01 -3.153831243515014648e+00 1.298900508880615234e+01 -3.153831243515014648e+00 2.873620033264160156e+01
1.959840393066406250e+01 1.556806659698486328e+01 1.263037395477294922e+01 1.556806659698486328e+01 1.335988426208496094e+01 -4.289057731628417969e+00 1.263037395477294922e+01 -4.289057731628417969e+00 2.694228744506835938e+01
2.050300979614257812e+01 1.778499603271484375e+01 1.207924079895019531e+01 1.778499603271484375e+01 1.197762393951416016e+01 -5.236845970153808594e+00 1.207924079895019531e+01 -5.236845970153808594e+00 2.487603187561035156e+01
2.077366065979003906e+01 1.845279121398925781e+01 1.185618400573730469e+01 1.845279121398925781e+01 1.156937026977539062e+01 -5.485660076141357422e+00 1.185618400573730469e+01 -5.485660076141357422e+00 2.411413764953613281e+01
2.161143493652343750e+01 2.115742874145507812e+01 1.050797557830810547e+01 2.115742874145507812e+01 9.495665550231933594e+00 -6.127622127532958984e+00 1.050797557830810547e+01 -6.127622127532958984e+00 1.972149276733398438e+01
2.152919006347656250e+01 2.190770149230957031e+01 9.948652267456054688e+00 2.190770149230957031e+01 8.313988685607910156e+00 -6.124398231506347656e+00 9.948652267456054688e+00 -6.124398231506347656e+00 1.780511283874511719e+01
2.052256202697753906e+01 2.271439933776855469e+01 8.794954299926757812e+00 2.271439933776855469e+01 5.395637989044189453e+00 -5.699067115783691406e+00 8.794954299926757812e+00 -5.699067115783691406e+00 1.395421886444091797e+01
1.325812435150146484e+01 1.860015296936035156e+01 4.748782157897949219e+00 1.860015296936035156e+01 -6.017019748687744141e+00 -2.611182689666748047e+00 4.748782157897949219e+00 -2.611182689666748047e+00 4.700458049774169922e+00
1.082162570953369141e+01 1.611229515075683594e+01 3.622905254364013672e+00 1.611229515075683594e+01 -9.790268898010253906e+00 -1.796023964881896973e+00 3.622905254364013672e+00 -1.796023964881896973e+00 3.012649536132812500e+00
9.464240074157714844e+00 1.385009765625000000e+01 2.698719501495361328e+00 1.385009765625000000e+01 -1.269027996063232422e+01 -1.332498550415039062e+00 2.698719501495361328e+00 -1.332498550415039062e+00 2.140309333801269531e+00
9.183775901794433594e+00 1.011609935760498047e+01 1.886622548103332520e+00 1.011609935760498047e+01 -1.394433593750000000e+01 -2.436246573925018311e-01 1.886622548103332520e+00 -2.436246573925018311e-01 3.033098220825195312e+00
1.412796211242675781e+01 6.026247501373291016e+00 1.992232799530029297e+00 6.026247501373291016e+00 -7.649608612060546875e+00 1.951896905899047852e+00 1.992232799530029297e+00 1.951896905899047852e+00 8.651019096374511719e+00
1.900075149536132812e+01 3.674832820892333984e+00 2.455551624298095703e+00 3.674832820892333984e+00 -1.066804051399230957e+00 4.036448001861572266e+00 2.455551624298095703e+00 4.036448001861572266e+00 1.297938728332519531e+01
2.556357574462890625e+01 1.879131317138671875e+00 2.305099248886108398e+00 1.879131317138671875e+00 7.832411289215087891e+00 7.448923110961914062e+00 2.305099248886108398e+00 7.448923110961914062e+00 1.809916687011718750e+01
3.084518623352050781e+01 5.248314142227172852e-01 1.105117797851562500e+00 5.248314142227172852e-01 1.686864471435546875e+01 1.149341678619384766e+01 1.105117797851562500e+00 1.149341678619384766e+01 2.059721183776855469e+01
3.149085998535156250e+01 4.133159816265106201e-01 7.943796515464782715e-01 4.133159816265106201e-01 1.830767822265625000e+01 1.216981983184814453e+01 7.943796515464782715e-01 1.216981983184814453e+01 2.077422904968261719e+01
3.245034408569335938e+01 2.034866809844970703e-01 9.401690959930419922e-02 2.034866809844970703e-01 2.112308120727539062e+01 1.341335773468017578e+01 9.401690959930419922e-02 1.341335773468017578e+01 2.109898567199707031e+01
3.282984161376953125e+01 -5.273508280515670776e-02 -1.118482470512390137e+00 -5.273508280515670776e-02 2.493130302429199219e+01 1.499158000946044922e+01 -1.118482470512390137e+00 1.499158000946044922e+01 2.162238883972167969e+01
3.131601905822753906e+01 -6.367074698209762573e-02 -3.132390737533569336e+00 -6.367074698209762573e-02 3.085521888732910156e+01 1.696972656250000000e+01 -3.132390737533569336e+00 1.696972656250000000e+01 2.344211387634277344e+01
3.009662628173828125e+01 2.178034372627735138e-02 -3.982952117919921875e+00 2.178034372627735138e-02 3.305750274658203125e+01 1.753307914733886719e+01 -3.982952117919921875e+00 1.753307914733886719e+01 2.495411109924316406e+01
2.804038429260253906e+01 1.331237703561782837e-01 -5.337512493133544922e+00 1.331237703561782837e-01 3.648347091674804688e+01 1.803770256042480469e+01 -5.337512493133544922e+00 1.803770256042480469e+01 2.818978500366210938e+01
2.455076217651367188e+01 7.654930949211120605e-01 -6.857089996337890625e+00 7.654930949211120605e-01 4.296447372436523438e+01 1.743776702880859375e+01 -6.857089996337890625e+00 1.743776702880859375e+01 3.574930191040039062e+01
2.099558639526367188e+01 2.395155906677246094e+00 -7.055364608764648438e+00 2.395155906677246094e+00 5.352950286865234375e+01 1.429850196838378906e+01 -7.055364608764648438e+00 1.429850196838378906e+01 4.926075744628906250e+01
1.919564628601074219e+01 7.023042201995849609e+00 -4.232943058013916016e+00 7.023042201995849609e+00 6.401383972167968750e+01 6.774925708770751953e+00 -4.232943058013916016e+00 6.774925708770751953e+00 6.505505371093750000e+01
1.913191413879394531e+01 8.949955940246582031e+00 -2.680769443511962891e+00 8.949955940246582031e+00 6.329363632202148438e+01 4.103535175323486328e+00 -2.680769443511962891e+00 4.103535175323486328e+00 6.715254974365234375e+01
1.921203804016113281e+01 1.108021545410156250e+01 -1.197236657142639160e+00 1.108021545410156250e+01 5.787146759033203125e+01 1.738693594932556152e+00 -1.197236657142639160e+00 1.738693594932556152e+00 6.590196990966796875e+01
1.924054718017578125e+01 1.139733409881591797e+01 -9.479738473892211914e-01 1.139733409881591797e+01 5.631846237182617188e+01 1.422579646110534668e+00 -9.479738473892211914e-01 1.422579646110534668e+00 6.522674560546875000e+01
1.957186508178710938e+01 1.229679393768310547e+01 -1.480391472578048706e-01 1.229679393768310547e+01 4.758777999877929688e+01 1.404042541980743408e-01 -1.480391472578048706e-01 1.404042541980743408e-01 6.027698135375976562e+01
2.226418495178222656e+01 9.994003295898437500e+00 -3.181262254714965820e+00 9.994003295898437500e+00 2.859240722656250000e+01 -3.449845075607299805e+00 -3.181262254714965820e+00 -3.449845075607299805e+00 4.797319793701171875e+01
2.281511688232421875e+01 9.028121948242187500e+00 -4.220881462097167969e+00 9.028121948242187500e+00 2.765347480773925781e+01 -4.022504329681396484e+00 -4.220881462097167969e+00 -4.022504329681396484e+00 4.782590103149414062e+01
2.631435775756835938e+01 3.809112310409545898e-01 -1.183364486694335938e+01 3.809112310409545898e-01 2.747059059143066406e+01 -5.605379581451416016e+00 -1.183364486694335938e+01 -5.605379581451416016e+00 4.989786529541015625e+01
2.655147933959960938e+01 -1.353323221206665039e+00 -1.293229103088378906e+01 -1.353323221206665039e+00 2.783379554748535156e+01 -5.332727909088134766e+00 -1.293229103088378906e+01 -5.332727909088134766e+00 5.003402328491210938e+01
1.727651214599609375e+01 -1.370441818237304688e+01 -1.346953105926513672e+01 -1.370441818237304688e+01 2.272765541076660156e+01 6.033431291580200195e-01 -1.346953105926513672e+01 6.033431291580200195e-01 3.342182922363281250e+01
1.666967010498046875e+01 -1.379025459289550781e+01 -1.292095088958740234e+01 -1.379025459289550781e+01 2.214288902282714844e+01 6.334582567214965820e-01 -1.292095088958740234e+01 6.334582567214965820e-01 3.196872520446777344e+01
1.611613082885742188e+01 -1.381702613830566406e+01 -1.232808113098144531e+01 -1.381702613830566406e+01 2.158600425720214844e+01 6.290423870086669922e-01 -1.232808113098144531e+01 6.290423870086669922e-01 3.053219795227050781e+01
1.174329090118408203e+01 -9.544537544250488281e+00 -3.161980152130126953e+00 -9.544537544250488281e+00 1.610652732849121094e+01 -4.125689506530761719e+00 -3.161980152130126953e+00 -4.125689506530761719e+00 1.221700286865234375e+01
1.158398914337158203e+01 -8.985587120056152344e+00 -2.288334608078002930e+00 -8.985587120056152344e+00 1.592266368865966797e+01 -4.782089710235595703e+00 -2.288334608078002930e+00 -4.782089710235595703e+00 1.095654869079589844e+01
1.195227718353271484e+01 -1.173373341560363770e+00 8.578710556030273438e+00 -1.173373341560363770e+00 1.640809440612792969e+01 -1.357308483123779297e+01 8.578710556030273438e+00 -1.357308483123779297e+01 -1.650018334388732910e+00
1.270199584960937500e+01 1.129740595817565918e+00 1.247342205047607422e+01 1.129740595817565918e+00 1.821941184997558594e+01 -1.626005172729492188e+01 1.247342205047607422e+01 -1.626005172729492188e+01 -4.569787025451660156e+00
1.467331409454345703e+01 5.904384613037109375e+00 2.212207031250000000e+01 5.904384613037109375e+00 2.666077613830566406e+01 -2.302548027038574219e+01 2.212207031250000000e+01 -2.302548027038574219e+01 -8.003128051757812500e+00
1.476256752014160156e+01 6.531168460845947266e+00 2.304902458190917969e+01 6.531168460845947266e+00 2.822218322753906250e+01 -2.365067100524902344e+01 2.304902458190917969e+01 -2.365067100524902344e+01 -7.954339027404785156e+00
1.455760765075683594e+01 7.824414730072021484e+00 2.403197860717773438e+01 7.824414730072021484e+00 3.111567115783691406e+01 -2.481170463562011719e+01 2.403197860717773438e+01 -2.481170463562011719e+01 -6.997730255126953125e+00
1.342856216430664062e+01 9.812208175659179688e+00 2.153996276855468750e+01 9.812208175659179688e+00 3.432720565795898438e+01 -2.612832832336425781e+01 2.153996276855468750e+01 -2.612832832336425781e+01 6.917785406112670898e-01
1.355336093902587891e+01 1.013962936401367188e+01 2.111646270751953125e+01 1.013962936401367188e+01 3.419982910156250000e+01 -2.606525421142578125e+01 2.111646270751953125e+01 -2.606525421142578125e+01 1.615475416183471680e+00
1.401895332336425781e+01 1.113247489929199219e+01 1.949072837829589844e+01 1.113247489929199219e+01 3.304949569702148438e+01 -2.566126823425292969e+01 1.949072837829589844e+01 -2.566126823425292969e+01 4.776864528656005859e+00
1.472769355773925781e+01 1.176334762573242188e+01 1.683771705627441406e+01 1.176334762573242188e+01 2.990562629699707031e+01 -2.492550277709960938e+01 1.683771705627441406e+01 -2.492550277709960938e+01 9.682815551757812500e+00
1.696098136901855469e+01 1.288698959350585938e+01 1.283271789550781250e+01 1.288698959350585938e+01 2.326249313354492188e+01 -2.306145668029785156e+01 1.283271789550781250e+01 -2.306145668029785156e+01 1.702358055114746094e+01
1.747928428649902344e+01 1.303697490692138672e+01 1.214808082580566406e+01 1.303697490692138672e+01 2.197462272644042969e+01 -2.274184608459472656e+01 1.214808082580566406e+01 -2.274184608459472656e+01 1.828979492187500000e+01
1.799161720275878906e+01 1.313890552520751953e+01 1.148289871215820312e+01 1.313890552520751953e+01 2.060221672058105469e+01 -2.243547248840332031e+01 1.148289871215820312e+01 -2.243547248840332031e+01 1.958212089538574219e+01
1.959504127502441406e+01 1.300862598419189453e+01 9.772358894348144531e+00 1.300862598419189453e+01 1.650716972351074219e+01 -2.124433517456054688e+01 9.772358894348144531e+00 -2.124433517456054688e+01 2.344343757629394531e+01
2.311515808105468750e+01 1.229805088043212891e+01 5.832357883453369141e+00 1.229805088043212891e+01 7.351596832275390625e+00 -1.790549087524414062e+01 5.832357883453369141e+00 -1.790549087524414062e+01 3.221456527709960938e+01
2.366274070739746094e+01 1.222359848022460938e+01 5.368308544158935547e+00 1.222359848022460938e+01 6.105899810791015625e+00 -1.748928642272949219e+01 5.368308544158935547e+00 -1.748928642272949219e+01 3.346347045898437500e+01
2.424477767944335938e+01 1.208423614501953125e+01 4.914327144622802734e+00 1.208423614501953125e+01 4.931653976440429688e+00 -1.709103775024414062e+01 4.914327144622802734e+00 -1.709103775024414062e+01 3.475942611694335938e+01
2.530180168151855469e+01 1.158497619628906250e+01 4.054936885833740234e+00 1.158497619628906250e+01 2.537307024002075195e+00 -1.648097229003906250e+01 4.054936885833740234e+00 -1.648097229003906250e+01 3.728263092041015625e+01
2.593928718566894531e+01 1.099982261657714844e+01 3.254175424575805664e+00 1.099982261657714844e+01 3.809145390987396240e-01 -1.608885192871093750e+01 3.254175424575805664e+00 -1.608885192871093750e+01 3.993037796020507812e+01
2.664574813842773438e+01 1.012166595458984375e+01 1.818444848060607910e+00 1.012166595458984375e+01 -2.550204753875732422e+00 -1.447854804992675781e+01 1.818444848060607910e+00 -1.447854804992675781e+01 4.431012725830078125e+01
2.721536254882812500e+01 9.974169731140136719e+00 8.573622703552246094e-01 9.974169731140136719e+00 -3.611386775970458984e+00 -1.357140541076660156e+01 8.573622703552246094e-01 -1.357140541076660156e+01 4.597555541992187500e+01
2.974329185485839844e+01 9.395177841186523438e+00 -1.196548461914062500e+00 9.395177841186523438e+00 -7.135076522827148438e+00 -1.239924049377441406e+01 -1.196548461914062500e+00 -1.239924049377441406e+01 4.930597305297851562e+01
3.120826721191406250e+01 9.691336631774902344e+00 -2.909734487533569336e+00 9.691336631774902344e+00 -1.103515052795410156e+01 -8.243971824645996094e+00 -2.909734487533569336e+00 -8.243971824645996094e+00 5.081506347656250000e+01
3.119261741638183594e+01 9.227409362792968750e+00 -3.603547334671020508e+00 9.227409362792968750e+00 -1.176595020294189453e+01 -7.167974472045898438e+00 -3.603547334671020508e+00 -7.167974472045898438e+00 5.129172134399414062e+01
3.083919143676757812e+01 8.885253906250000000e+00 -4.866941452026367188e+00 8.885253906250000000e+00 -1.279205513000488281e+01 -2.675314188003540039e+00 -4.866941452026367188e+00 -2.675314188003540039e+00 5.067515563964843750e+01
2.518930625915527344e+01 3.697182416915893555e+00 -9.190463066101074219e+00 3.697182416915893555e+00 -1.038386440277099609e+01 1.357481718063354492e+00 -9.190463066101074219e+00 1.357481718063354492e+00 5.064025115966796875e+01
2.494077682495117188e+01 3.404961347579956055e+00 -9.810138702392578125e+00 3.404961347579956055e+00 -9.611469268798828125e+00 1.378559470176696777e+00 -9.810138702392578125e+00 1.378559470176696777e+00 5.026608276367187500e+01
2.380558967590332031e+01 3.005366086959838867e+00 -1.075074863433837891e+01 3.005366086959838867e+00 -7.685420989990234375e+00 1.490121006965637207e+00 -1.075074863433837891e+01 1.490121006965637207e+00 4.967063140869140625e+01
2.291251564025878906e+01 2.577653646469116211e+00 -1.086649894714355469e+01 2.577653646469116211e+00 -6.617026329040527344e+00 1.392466545104980469e+00 -1.086649894714355469e+01 1.392466545104980469e+00 4.960934066772460938e+01
2.159268760681152344e+01 1.540411710739135742e+00 -1.111157035827636719e+01 1.540411710739135742e+00 -3.917188882827758789e+00 2.653526961803436279e-01 -1.111157035827636719e+01 2.653526961803436279e-01 4.769327926635742188e+01
2.070509338378906250e+01 1.242293000221252441e+00 -1.117379474639892578e+01 1.242293000221252441e+00 -2.946864366531372070e+00 -5.966266617178916931e-02 -1.117379474639892578e+01 -5.966266617178916931e-02 4.749058532714843750e+01
1.856755256652832031e+01 1.109924554824829102e+00 -1.143906974792480469e+01 1.109924554824829102e+00 2.216260910034179688e+00 -2.603496074676513672e+00 -1.143906974792480469e+01 -2.603496074676513672e+00 4.412865066528320312e+01
1.558142280578613281e+01 3.019451141357421875e+00 -1.023572444915771484e+01 3.019451141357421875e+00 8.100811958312988281e+00 -7.897404670715332031e+00 -1.023572444915771484e+01 -7.897404670715332031e+00 3.878519058227539062e+01
1.539808273315429688e+01 3.459168434143066406e+00 -9.782952308654785156e+00 3.459168434143066406e+00 8.898515701293945312e+00 -8.666461944580078125e+00 -9.782952308654785156e+00 -8.666461944580078125e+00 3.778216552734375000e+01
1.539647674560546875e+01 3.855196475982666016e+00 -9.400419235229492188e+00 3.855196475982666016e+00 9.577970504760742188e+00 -9.371929168701171875e+00 -9.400419235229492188e+00 -9.371929168701171875e+00 3.669604873657226562e+01
1.551520252227783203e+01 4.506586551666259766e+00 -9.045743942260742188e+00 4.506586551666259766e+00 1.214719295501708984e+01 -1.119134330749511719e+01 -9.045743942260742188e+00 -1.119134330749511719e+01 3.285808181762695312e+01
1.363020324707031250e+01 6.437553405761718750e+00 -6.070430755615234375e+00 6.437553405761718750e+00 1.912612724304199219e+01 -1.418593215942382812e+01 -6.070430755615234375e+00 -1.418593215942382812e+01 2.559177970886230469e+01
1.355326175689697266e+01 6.278720855712890625e+00 -5.879191875457763672e+00 6.278720855712890625e+00 2.004290008544921875e+01 -1.425186729431152344e+01 -5.879191875457763672e+00 -1.425186729431152344e+01 2.470512771606445312e+01
1.468358230590820312e+01 5.427984237670898438e+00 -5.184198856353759766e+00 5.427984237670898438e+00 2.321315574645996094e+01 -1.313276576995849609e+01 -5.184198856353759766e+00 -1.313276576995849609e+01 2.087339591979980469e+01
1.452681446075439453e+01 4.675933361053466797e+00 -4.798907756805419922e+00 4.675933361053466797e+00 2.415857315063476562e+01 -1.201822757720947266e+01 -4.798907756805419922e+00 -1.201822757720947266e+01 2.047445869445800781e+01
1.449015522003173828e+01 -1.021732926368713379e+00 -4.184092521667480469e+00 -1.021732926368713379e+00 2.751706695556640625e+01 -3.642939031124114990e-02 -4.184092521667480469e+00 -3.642939031124114990e-02 1.418771457672119141e+01
1.417027950286865234e+01 -4.280104637145996094e+00 -4.906611919403076172e+00 -4.280104637145996094e+00 2.644639587402343750e+01 7.083738327026367188e+00 -4.906611919403076172e+00 7.083738327026367188e+00 1.018358993530273438e+01
1.314292907714843750e+01 -5.375569820404052734e+00 -4.873757362365722656e+00 -5.375569820404052734e+00 2.622998428344726562e+01 9.566191673278808594e+00 -4.873757362365722656e+00 9.566191673278808594e+00 9.097525596618652344e+00
1.135835361480712891e+01 -7.473971366882324219e+00 -5.404600143432617188e+00 -7.473971366882324219e+00 2.526069641113281250e+01 1.386355590820312500e+01 -5.404600143432617188e+00 1.386355590820312500e+01 7.420869350433349609e+00
1.111273765563964844e+01 -7.568737030029296875e+00 -5.533688068389892578e+00 -7.568737030029296875e+00 2.477667045593261719e+01 1.453483963012695312e+01 -5.533688068389892578e+00 1.453483963012695312e+01 7.119003295898437500e+00
1.095937156677246094e+01 -7.614544868469238281e+00 -5.483410835266113281e+00 -7.614544868469238281e+00 2.423762702941894531e+01 1.532043266296386719e+01 -5.483410835266113281e+00 1.532043266296386719e+01 6.713904857635498047e+00
6.785422325134277344e+00 -6.307378292083740234e+00 -5.465886592864990234e+00 -6.307378292083740234e+00 2.141566467285156250e+01 2.369242095947265625e+01 -5.465886592864990234e+00 2.369242095947265625e+01 1.018225765228271484e+01
6.876634120941162109e+00 -5.935032367706298828e+00 -5.493767261505126953e+00 -5.935032367706298828e+00 2.150839424133300781e+01 2.342538833618164062e+01 -5.493767261505126953e+00 2.342538833618164062e+01 1.058646583557128906e+01
1.204690742492675781e+01 -5.837034806609153748e-02 -5.935184955596923828e+00 -5.837034806609153748e-02 2.014048004150390625e+01 1.952790832519531250e+01 -5.935184955596923828e+00 1.952790832519531250e+01 1.542867469787597656e+01