-2.278428320312500000e+04
-2.278019726562500000e+04
-2.277897656250000000e+04
-2.277566992187500000e+04
-2.277189453125000000e+04
-2.276621289062500000e+04
-2.276650976562500000e+04
-2.276726171875000000e+04
-2.276750390625000000e+04
-2.276815429687500000e+04
-2.276833984375000000e+04
-2.276842187500000000e+04
-2.276873632812500000e+04
-2.276860351562500000e+04
-2.276829101562500000e+04
-2.276713867187500000e+04
-2.276572656250000000e+04
-2.276558789062500000e+04
-2.276500976562500000e+04
-2.276457812500000000e+04
-2.276444726562500000e+04
-2.276432617187500000e+04
-2.276417968750000000e+04
-2.276412500000000000e+04
-2.276410742187500000e+04
-2.276410351562500000e+04
-2.276410742187500000e+04
-2.276411914062500000e+04
-2.276483203125000000e+04
-2.276548242187500000e+04
-2.276581835937500000e+04
-2.276593164062500000e+04
-2.276368945312500000e+04
-2.275946679687500000e+04
-2.275942578125000000e+04
-2.276002343750000000e+04
-2.276027539062500000e+04
-2.276048242187500000e+04
-2.276071484375000000e+04
-2.276071875000000000e+04
-2.276069921875000000e+04
-2.276057812500000000e+04
-2.276024218750000000e+04
-2.275989062500000000e+04
-2.275935742187500000e+04
-2.275924023437500000e+04
-2.275899804687500000e+04
-2.275860937500000000e+04
-2.275824218750000000e+04
-2.275812890625000000e+04
-2.275777343750000000e+04
-2.275773828125000000e+04
-2.275785351562500000e+04
-2.275890234375000000e+04
-2.275920703125000000e+04
-2.275938476562500000e+04
-2.275919726562500000e+04
-2.275799609375000000e+04
-2.275720507812500000e+04
-2.275647070312500000e+04
-2.275599218750000000e+04
-2.275594726562500000e+04
-2.275588867187500000e+04
-2.275592773437500000e+04
-2.275624609375000000e+04
-2.275642187500000000e+04
-2.275670703125000000e+04
-2.275699609375000000e+04
-2.275684570312500000e+04
-2.275541406250000000e+04
-2.275441015625000000e+04
-2.275316992187500000e+04
-2.275296484375000000e+04
-2.275236718750000000e+04
-2.275408398437500000e+04
-2.275437890625000000e+04
-2.275431250000000000e+04
-2.275392578125000000e+04
-2.274792578125000000e+04
-2.274790429687500000e+04
-2.274790234375000000e+04
-2.274881054687500000e+04
-2.274885937500000000e+04
-2.274883398437500000e+04
-2.274844531250000000e+04
-2.274656640625000000e+04
-2.274641210937500000e+04
-2.274639648437500000e+04
-2.274737890625000000e+04
-2.274746093750000000e+04
-2.274763476562500000e+04
-2.274769140625000000e+04
-2.274743164062500000e+04
-2.274734960937500000e+04
-2.274726171875000000e+04
-2.274692968750000000e+04
-2.274581835937500000e+04
-2.274564648437500000e+04
-2.274547656250000000e+04
-2.274514843750000000e+04
-2.274488085937500000e+04
-2.274462109375000000e+04
-2.274463476562500000e+04
-2.274514062500000000e+04
-2.274592578125000000e+04
-2.274616015625000000e+04
-2.274664062500000000e+04
-2.274712500000000000e+04
-2.274711718750000000e+04
-2.274705273437500000e+04
-2.274700000000000000e+04
-2.274673437500000000e+04
-2.274661132812500000e+04
-2.274583007812500000e+04
-2.274457031250000000e+04
-2.274444921875000000e+04
-2.274447460937500000e+04
-2.274411718750000000e+04
-2.274352539062500000e+04
-2.274346289062500000e+04
-2.274290625000000000e+04
-2.274254492187500000e+04
-2.274013867187500000e+04
-2.273957031250000000e+04
-2.273952734375000000e+04
-2.273953710937500000e+04
-2.273953710937500000e+04
-2.273953320312500000e+04
-2.273809960937500000e+04
-2.273803710937500000e+04
-2.273786914062500000e+04
-2.273793945312500000e+04
-2.273825000000000000e+04
-2.273891015625000000e+04
-2.273930664062500000e+04
-2.274075976562500000e+04
-2.274123632812500000e+04
-2.274118554687500000e+04
-2.274104687500000000e+04
-2.274046484375000000e+04
-2.273963085937500000e+04
-2.273908203125000000e+04
-2.273900390625000000e+04
-2.273891210937500000e+04
-2.273844140625000000e+04
-2.273773437500000000e+04
-2.273702734375000000e+04
-2.273705273437500000e+04
-2.273715820312500000e+04
-2.273734179687500000e+04
-2.273768359375000000e+04
-2.273746093750000000e+04
-2.273630664062500000e+04
-2.273598828125000000e+04
-2.273544921875000000e+04
-2.273546484375000000e+04
-2.273557421875000000e+04
-2.273635937500000000e+04
-2.273692187500000000e+04
-2.273756445312500000e+04
-2.273825000000000000e+04
-2.273891406250000000e+04
-2.274007226562500000e+04
-2.274025976562500000e+04
-2.274036523437500000e+04
-2.274034570312500000e+04
-2.273989843750000000e+04
-2.273849609375000000e+04
-2.273772656250000000e+04
-2.273720703125000000e+04
-2.273739257812500000e+04
-2.273738281250000000e+04
-2.273730468750000000e+04
-2.273717382812500000e+04
-2.273702148437500000e+04
-2.273698437500000000e+04
-2.273688867187500000e+04
-2.273691992187500000e+04
-2.273699804687500000e+04
-2.273763671875000000e+04
-2.273769921875000000e+04
-2.273754296875000000e+04
-2.273717578125000000e+04
-2.273758007812500000e+04
-2.273788281250000000e+04
-2.273921093750000000e+04
-2.273981835937500000e+04
-2.274133593750000000e+04
-2.274127539062500000e+04
-2.274044921875000000e+04
-2.273584960937500000e+04
-2.273588281250000000e+04
-2.273617578125000000e+04
-2.273646289062500000e+04
-2.273819531250000000e+04
-2.273861523437500000e+04
-2.273936132812500000e+04
-2.274137695312500000e+04
-2.274149023437500000e+04
-2.274151953125000000e+04
-2.274067382812500000e+04
-2.274013671875000000e+04
-2.273957617187500000e+04
-2.273891992187500000e+04
-2.273881250000000000e+04
-2.273833398437500000e+04
-2.273814453125000000e+04
-2.273858593750000000e+04
-2.273896484375000000e+04
-2.273908007812500000e+04
-2.274124023437500000e+04
-2.274189453125000000e+04
-2.274184960937500000e+04
-2.274179492187500000e+04
-2.274107031250000000e+04
-2.274088085937500000e+04
-2.273851757812500000e+04
-2.273818554687500000e+04
-2.273587304687500000e+04
-2.273487890625000000e+04
-2.273423632812500000e+04
-2.273412890625000000e+04
-2.273403906250000000e+04
-2.273387695312500000e+04
-2.273414062500000000e+04
-2.273448242187500000e+04
-2.273475195312500000e+04
-2.273491992187500000e+04
-2.273468750000000000e+04
-2.273443164062500000e+04
-2.273087109375000000e+04
-2.273097070312500000e+04
-2.273113476562500000e+04
-2.273247070312500000e+04
-2.273267968750000000e+04
-2.273277539062500000e+04
-2.273286328125000000e+04
-2.273281835937500000e+04
-2.273265234375000000e+04
-2.273293945312500000e+04
-2.273305078125000000e+04
-2.273346875000000000e+04
-2.273395703125000000e+04
-2.273446875000000000e+04
-2.273436914062500000e+04
-2.273129687500000000e+04
-2.273093750000000000e+04
-2.272840429687500000e+04
-2.272837695312500000e+04
-2.272837304687500000e+04
-2.272840429687500000e+04
-2.272923632812500000e+04
-2.272964257812500000e+04
-2.273071289062500000e+04
-2.273104101562500000e+04
-2.273211914062500000e+04
-2.273408984375000000e+04
-2.273512890625000000e+04
-2.273533203125000000e+04
-2.273552148437500000e+04
-2.273597070312500000e+04
-2.273569726562500000e+04
-2.273529492187500000e+04
-2.273426757812500000e+04
-2.273294726562500000e+04
-2.273220507812500000e+04
-2.273207421875000000e+04
-2.273203125000000000e+04
-2.273352539062500000e+04
-2.273363085937500000e+04
-2.273371679687500000e+04
-2.273389843750000000e+04
-2.273385937500000000e+04
-2.273350781250000000e+04
-2.273333593750000000e+04
-2.273338085937500000e+04
-2.273341210937500000e+04
-2.273330078125000000e+04
-2.273251953125000000e+04
-2.273263867187500000e+04
-2.273275781250000000e+04
-2.273296289062500000e+04
-2.273284765625000000e+04
-2.273253320312500000e+04
-2.273208203125000000e+04
-2.273189843750000000e+04
-2.273205273437500000e+04
-2.273213671875000000e+04
-2.273473242187500000e+04
-2.273496875000000000e+04
-2.273578710937500000e+04
-2.273590625000000000e+04
-2.273657421875000000e+04
-2.273763476562500000e+04
-2.273769140625000000e+04
-2.273775976562500000e+04
-2.273778710937500000e+04
-2.273780859375000000e+04
-2.273791601562500000e+04
-2.273797265625000000e+04
-2.273814843750000000e+04
-2.273825585937500000e+04
-2.273748046875000000e+04
-2.273733398437500000e+04
-2.273636132812500000e+04
-2.273517773437500000e+04
-2.273509179687500000e+04
-2.273504687500000000e+04
-2.273489257812500000e+04
-2.273482617187500000e+04
-2.273470117187500000e+04
-2.273432226562500000e+04
-2.273414257812500000e+04
-2.273427539062500000e+04
-2.273393164062500000e+04
-2.273383007812500000e+04
-2.273290429687500000e+04
-2.273277148437500000e+04
-2.273265429687500000e+04
-2.273227148437500000e+04
-2.273236523437500000e+04
-2.273227343750000000e+04
-2.273199218750000000e+04
-2.273192187500000000e+04
-2.273368750000000000e+04
-2.273382617187500000e+04
-2.273408007812500000e+04
-2.273420312500000000e+04
-2.273442187500000000e+04
-2.273518164062500000e+04
-2.273520703125000000e+04
-2.273493945312500000e+04
-2.273375000000000000e+04
-2.273262500000000000e+04
-2.273204492187500000e+04
-2.273212500000000000e+04
-2.273256054687500000e+04
-2.273367382812500000e+04
-2.273380078125000000e+04
-2.273418945312500000e+04
-2.273129101562500000e+04
-2.272700585937500000e+04
-2.272620703125000000e+04
-2.272569921875000000e+04
-2.272865234375000000e+04
-2.272843750000000000e+04
-2.272857031250000000e+04
-2.272879687500000000e+04
-2.272971484375000000e+04
-2.272989062500000000e+04
-2.273024023437500000e+04
-2.273150781250000000e+04
-2.273145117187500000e+04
-2.273139843750000000e+04
-2.272966406250000000e+04
-2.272896093750000000e+04
-2.272848828125000000e+04
-2.272840234375000000e+04
-2.272812500000000000e+04
-2.272790429687500000e+04
-2.272747070312500000e+04
-2.272862304687500000e+04
-2.272890039062500000e+04
-2.273102148437500000e+04
-2.273094921875000000e+04
-2.273102929687500000e+04
-2.273106835937500000e+04
-2.273122656250000000e+04
-2.273144140625000000e+04
-2.273169140625000000e+04
-2.273193359375000000e+04
-2.273340820312500000e+04
-2.273355664062500000e+04
-2.273362109375000000e+04
-2.273361328125000000e+04
-2.273353125000000000e+04
-2.273349023437500000e+04
-2.273287890625000000e+04
-2.273385742187500000e+04
-2.273407812500000000e+04
-2.273409765625000000e+04
-2.273394140625000000e+04
-2.273357617187500000e+04
-2.273313281250000000e+04
-2.273281445312500000e+04
-2.273273046875000000e+04
-2.273263867187500000e+04
-2.273254882812500000e+04
-2.273240820312500000e+04
-2.273222265625000000e+04
-2.273255468750000000e+04
-2.273263671875000000e+04
-2.273321875000000000e+04
-2.273336914062500000e+04
-2.273360351562500000e+04
-2.273365429687500000e+04
-2.273331250000000000e+04
-2.273251562500000000e+04
-2.273096679687500000e+04
-2.273056250000000000e+04
-2.273035742187500000e+04
-2.272999804687500000e+04
-2.272986328125000000e+04
-2.272968359375000000e+04
-2.272965625000000000e+04
-2.273008789062500000e+04
-2.273016796875000000e+04
-2.273021093750000000e+04
-2.273030859375000000e+04
-2.273045507812500000e+04
-2.273052148437500000e+04
-2.273300390625000000e+04
-2.273325390625000000e+04
-2.273529296875000000e+04
-2.273582617187500000e+04
-2.273605273437500000e+04
-2.273695507812500000e+04
-2.273724218750000000e+04
-2.273664453125000000e+04
-2.273602929687500000e+04
-2.273347851562500000e+04
-2.273337890625000000e+04
-2.273331445312500000e+04
-2.273308398437500000e+04
-2.273307617187500000e+04
-2.273310351562500000e+04
-2.273315039062500000e+04
-2.273401953125000000e+04
-2.273494921875000000e+04
-2.273484179687500000e+04
-2.273455664062500000e+04
-2.273305664062500000e+04
-2.273164843750000000e+04
-2.273061523437500000e+04
-2.273029687500000000e+04
-2.272981445312500000e+04
-2.272847265625000000e+04
-2.272843554687500000e+04
-2.272842187500000000e+04
-2.272733398437500000e+04
-2.272681445312500000e+04
-2.272609179687500000e+04
-2.272595312500000000e+04
-2.272539843750000000e+04
-2.272527929687500000e+04
-2.272517382812500000e+04
-2.272522656250000000e+04
-2.272572656250000000e+04
-2.272582226562500000e+04
-2.272595117187500000e+04
-2.272595312500000000e+04
-2.272568945312500000e+04
-2.272557031250000000e+04
-2.272562890625000000e+04
-2.272619140625000000e+04
-2.272643750000000000e+04
-2.272664648437500000e+04
-2.272682226562500000e+04
-2.272679882812500000e+04
-2.272684570312500000e+04
-2.272697070312500000e+04
-2.272760546875000000e+04
-2.272848828125000000e+04
-2.272962304687500000e+04
-2.273004882812500000e+04
-2.273020703125000000e+04
-2.272966210937500000e+04
-2.272863085937500000e+04
-2.272844140625000000e+04
-2.272826757812500000e+04
-2.272810351562500000e+04
-2.272794335937500000e+04
-2.272719921875000000e+04
-2.272689062500000000e+04
-2.272666601562500000e+04
-2.272729687500000000e+04
-2.272829492187500000e+04
-2.272851757812500000e+04
-2.272867968750000000e+04
-2.272848828125000000e+04
-2.272775585937500000e+04
-2.272759570312500000e+04
-2.272718554687500000e+04
-2.272707812500000000e+04
-2.272720703125000000e+04
-2.272739648437500000e+04
-2.272752539062500000e+04
-2.272795117187500000e+04
-2.272817382812500000e+04
-2.272835156250000000e+04
-2.272838476562500000e+04
-2.272823046875000000e+04
-2.272758203125000000e+04
-2.272598242187500000e+04
-2.272510937500000000e+04
-2.272525390625000000e+04
-2.272667382812500000e+04
-2.272724804687500000e+04
-2.272722070312500000e+04
-2.272719335937500000e+04
-2.272698828125000000e+04
-2.272697265625000000e+04
-2.272727343750000000e+04
-2.272765625000000000e+04
-2.272825390625000000e+04
-2.272861718750000000e+04
-2.272883007812500000e+04
-2.272883789062500000e+04
-2.272732812500000000e+04
-2.272629492187500000e+04
-2.272429492187500000e+04
-2.272418945312500000e+04
-2.272414062500000000e+04
-2.272415429687500000e+04
-2.272425585937500000e+04
-2.272430859375000000e+04
-2.272539843750000000e+04
-2.272625000000000000e+04
-2.272661718750000000e+04
-2.272734375000000000e+04
-2.272766015625000000e+04
-2.272780468750000000e+04
-2.272829687500000000e+04
-2.272833007812500000e+04
-2.272829687500000000e+04
-2.272801171875000000e+04
-2.272678710937500000e+04
-2.272664257812500000e+04
-2.272608984375000000e+04
-2.272536132812500000e+04
-2.272519726562500000e+04
-2.272519140625000000e+04
-2.272519531250000000e+04
-2.272524804687500000e+04
-2.272591601562500000e+04
-2.272600000000000000e+04
-2.272634960937500000e+04
-2.272637695312500000e+04
-2.272637500000000000e+04
-2.272472851562500000e+04
-2.272433007812500000e+04
-2.272381640625000000e+04
-2.272380078125000000e+04
-2.272383789062500000e+04
-2.272527539062500000e+04
-2.272546093750000000e+04
-2.272624414062500000e+04
-2.272665234375000000e+04
-2.272684570312500000e+04
-2.272643554687500000e+04
-2.272641210937500000e+04
-2.272639648437500000e+04
-2.272627539062500000e+04
-2.272628710937500000e+04
-2.272631445312500000e+04
-2.272633398437500000e+04
-2.272636132812500000e+04
-2.272635742187500000e+04
-2.272592187500000000e+04
-2.272649218750000000e+04
-2.272741015625000000e+04
-2.272819140625000000e+04
-2.272845312500000000e+04
-2.272844531250000000e+04
-2.272826171875000000e+04
-2.272728125000000000e+04
-2.272704492187500000e+04
-2.272682421875000000e+04
-2.272578710937500000e+04
-2.272569335937500000e+04
-2.272548242187500000e+04
-2.272499804687500000e+04
-2.272485351562500000e+04
-2.272491796875000000e+04
-2.272528906250000000e+04
-2.272472460937500000e+04
-2.272455859375000000e+04
-2.272457031250000000e+04
-2.272466796875000000e+04
-2.272484375000000000e+04
-2.272491601562500000e+04
-2.272543164062500000e+04
-2.272566796875000000e+04
-2.272567578125000000e+04
-2.272566992187500000e+04
-2.272566992187500000e+04
-2.272566210937500000e+04
-2.272568554687500000e+04
-2.272578906250000000e+04
-2.272583007812500000e+04
-2.272702343750000000e+04
-2.272733203125000000e+04
-2.272742968750000000e+04
-2.272754492187500000e+04
-2.272774414062500000e+04
-2.272854296875000000e+04
-2.272865234375000000e+04
-2.272887500000000000e+04
-2.272917382812500000e+04
-2.272940429687500000e+04
-2.272965039062500000e+04
-2.272963867187500000e+04
-2.272955468750000000e+04
-2.272943359375000000e+04
-2.272938476562500000e+04
-2.272933203125000000e+04
-2.272905273437500000e+04
-2.272894921875000000e+04
-2.272840625000000000e+04
-2.272766796875000000e+04
-2.272721093750000000e+04
-2.272675781250000000e+04
-2.272702343750000000e+04
-2.272935742187500000e+04
-2.272972265625000000e+04
-2.273013671875000000e+04
-2.272989843750000000e+04
-2.272951757812500000e+04
-2.272931250000000000e+04
-2.272921484375000000e+04
-2.272901757812500000e+04
-2.272929492187500000e+04
-2.272950585937500000e+04
-2.273002929687500000e+04
-2.272997070312500000e+04
-2.272966210937500000e+04
-2.272936718750000000e+04
-2.272780664062500000e+04
-2.272765039062500000e+04
-2.272753515625000000e+04
-2.272736523437500000e+04
-2.272664062500000000e+04
-2.272669726562500000e+04
-2.272688085937500000e+04
-2.272760937500000000e+04
-2.272792968750000000e+04
-2.272788867187500000e+04
-2.272736132812500000e+04
-2.272658203125000000e+04
-2.272656640625000000e+04
-2.272701757812500000e+04
-2.272791406250000000e+04
-2.272860156250000000e+04
-2.272866992187500000e+04
-2.272874023437500000e+04
-2.272884765625000000e+04
-2.272902734375000000e+04
-2.272929101562500000e+04
-2.272962695312500000e+04
-2.272975000000000000e+04
-2.272979101562500000e+04
-2.272982812500000000e+04
-2.272987500000000000e+04
-2.272928710937500000e+04
-2.272882031250000000e+04
-2.272820507812500000e+04
-2.272839062500000000e+04
-2.272903320312500000e+04
-2.272954101562500000e+04
-2.272966796875000000e+04
-2.273011523437500000e+04
-2.273058593750000000e+04
-2.273067773437500000e+04
-2.273114062500000000e+04
-2.273139648437500000e+04
-2.273136132812500000e+04
-2.273117187500000000e+04
-2.273036328125000000e+04
-2.272997851562500000e+04
-2.272985546875000000e+04
-2.272985351562500000e+04
-2.272986328125000000e+04
-2.272987304687500000e+04
-2.273002343750000000e+04
-2.273006054687500000e+04
-2.273007617187500000e+04
-2.273008203125000000e+04
-2.273004101562500000e+04
-2.272966406250000000e+04
-2.272964843750000000e+04
-2.272961914062500000e+04
-2.272968945312500000e+04
-2.272948242187500000e+04
-2.272879296875000000e+04
-2.272853515625000000e+04
-2.272852734375000000e+04
-2.272854296875000000e+04
-2.272913085937500000e+04
-2.272933789062500000e+04
-2.272975781250000000e+04
-2.273034765625000000e+04
-2.273074023437500000e+04
-2.273078125000000000e+04
-2.273076953125000000e+04
-2.273072265625000000e+04
-2.273062109375000000e+04
-2.273050781250000000e+04
-2.273050585937500000e+04
-2.273084765625000000e+04
-2.273261914062500000e+04
-2.273312890625000000e+04
-2.273375585937500000e+04
-2.273399804687500000e+04
-2.273405468750000000e+04
-2.273424609375000000e+04
-2.273423632812500000e+04
-2.273417578125000000e+04
-2.273412890625000000e+04
-2.273298046875000000e+04
-2.273259375000000000e+04
-2.273172460937500000e+04
-2.273104492187500000e+04
-2.273038671875000000e+04
-2.272997460937500000e+04
-2.272946289062500000e+04
-2.272919726562500000e+04
-2.272886914062500000e+04
-2.272884179687500000e+04
-2.272900000000000000e+04
-2.272998242187500000e+04
-2.273114257812500000e+04
-2.273135937500000000e+04
-2.273130078125000000e+04
-2.273103710937500000e+04
-2.273049414062500000e+04
-2.273042187500000000e+04
-2.273027734375000000e+04
-2.272997070312500000e+04
-2.272979687500000000e+04
-2.272964453125000000e+04
-2.272963281250000000e+04
-2.272960351562500000e+04
-2.272944921875000000e+04
-2.272936328125000000e+04
-2.272910546875000000e+04
-2.272889453125000000e+04
-2.272875585937500000e+04
-2.272886523437500000e+04
-2.272930468750000000e+04
-2.272959960937500000e+04
-2.272913281250000000e+04
-2.272649804687500000e+04
-2.272719140625000000e+04
-2.272940625000000000e+04
-2.273006445312500000e+04
-2.272993164062500000e+04
-2.273008789062500000e+04
-2.273020117187500000e+04
-2.273030273437500000e+04
-2.273066992187500000e+04
-2.273069335937500000e+04
-2.273060156250000000e+04
-2.273034960937500000e+04
-2.272886328125000000e+04
-2.272856640625000000e+04
-2.272783007812500000e+04
-2.272768359375000000e+04
-2.272772656250000000e+04
-2.272774804687500000e+04
-2.272825781250000000e+04
-2.272916992187500000e+04
-2.273013281250000000e+04
-2.273034179687500000e+04
-2.273055273437500000e+04
-2.273163281250000000e+04
-2.273144726562500000e+04
-2.273026562500000000e+04
-2.273012890625000000e+04
-2.273062304687500000e+04
-2.273077148437500000e+04
-2.273094921875000000e+04
-2.273147656250000000e+04
-2.273067773437500000e+04
-2.273015039062500000e+04
-2.272996289062500000e+04
-2.272990429687500000e+04
-2.272988867187500000e+04
-2.272994531250000000e+04
-2.273000000000000000e+04
-2.272959179687500000e+04
-2.272905664062500000e+04
-2.272860937500000000e+04
-2.272781054687500000e+04
-2.272767968750000000e+04
-2.272772460937500000e+04
-2.272779101562500000e+04
-2.272867578125000000e+04
-2.272842773437500000e+04
-2.272835742187500000e+04
-2.272829296875000000e+04
-2.272922070312500000e+04
-2.273020898437500000e+04
-2.273055273437500000e+04
-2.273125585937500000e+04
-2.273123828125000000e+04
-2.273121679687500000e+04
-2.273095507812500000e+04
-2.273079492187500000e+04
-2.273074023437500000e+04
-2.273035156250000000e+04
-2.273028515625000000e+04
-2.273008984375000000e+04
-2.272961718750000000e+04
-2.272991406250000000e+04
-2.273089648437500000e+04
-2.273321875000000000e+04
-2.273386914062500000e+04
-2.273403710937500000e+04
-2.273441210937500000e+04
-2.273447265625000000e+04
-2.273385937500000000e+04
-2.273352734375000000e+04
-2.273335351562500000e+04
-2.273228906250000000e+04
-2.273086914062500000e+04
-2.272995312500000000e+04
-2.272949414062500000e+04
-2.272914453125000000e+04
-2.272906835937500000e+04
-2.272901171875000000e+04
-2.272898046875000000e+04
-2.272916210937500000e+04
-2.272915625000000000e+04
-2.272914257812500000e+04
-2.272815625000000000e+04
-2.272799804687500000e+04
-2.272784179687500000e+04
-2.272782226562500000e+04
-2.272784375000000000e+04
-2.272788671875000000e+04
-2.272800976562500000e+04
-2.272809570312500000e+04
-2.272819531250000000e+04
-2.272829882812500000e+04
-2.272840429687500000e+04
-2.272851367187500000e+04
-2.272938085937500000e+04
-2.272901953125000000e+04
-2.272892382812500000e+04
-2.272880859375000000e+04
-2.272845312500000000e+04
-2.272801562500000000e+04
-2.272640039062500000e+04
-2.272591406250000000e+04
-2.272571093750000000e+04
-2.272573828125000000e+04
-2.272618359375000000e+04
-2.272633398437500000e+04
-2.272735156250000000e+04
-2.272760156250000000e+04
-2.272750781250000000e+04
-2.272744921875000000e+04
-2.272729296875000000e+04
-2.272719921875000000e+04
-2.272686132812500000e+04
-2.272593164062500000e+04
-2.272542578125000000e+04
-2.272541796875000000e+04
-2.272621289062500000e+04
-2.272627539062500000e+04
-2.272608984375000000e+04
-2.272583007812500000e+04
-2.272560156250000000e+04
-2.272497265625000000e+04
-2.272449023437500000e+04
-2.272274414062500000e+04
-2.272232226562500000e+04
-2.272346289062500000e+04
-2.272365429687500000e+04
-2.272424414062500000e+04
-2.272491992187500000e+04
-2.272558007812500000e+04
-2.272550195312500000e+04
-2.272522851562500000e+04
-2.272511914062500000e+04
-2.272487500000000000e+04
-2.272379296875000000e+04
-2.272319531250000000e+04
-2.272310742187500000e+04
-2.272329687500000000e+04
-2.272338867187500000e+04
-2.272394140625000000e+04
-2.272428906250000000e+04
-2.272551367187500000e+04
-2.272707812500000000e+04
-2.272884765625000000e+04
-2.272822070312500000e+04
-2.272867382812500000e+04
-2.272878515625000000e+04
-2.272890820312500000e+04
-2.272993164062500000e+04
-2.273049609375000000e+04
-2.273051757812500000e+04
-2.273053320312500000e+04
-2.273047656250000000e+04
-2.273055664062500000e+04
-2.273070312500000000e+04
-2.273090820312500000e+04
-2.273091210937500000e+04
-2.273088867187500000e+04
-2.273060546875000000e+04
-2.273046093750000000e+04
-2.273033789062500000e+04
-2.273022070312500000e+04
-2.273003906250000000e+04
-2.273005273437500000e+04
-2.273028320312500000e+04
-2.273077929687500000e+04
-2.273084179687500000e+04
-2.273115625000000000e+04
-2.273152734375000000e+04
-2.273156054687500000e+04
-2.273163867187500000e+04
-2.273182226562500000e+04
-2.273284765625000000e+04
-2.273294726562500000e+04
-2.273323828125000000e+04
-2.273273828125000000e+04
-2.273201367187500000e+04
-2.273179296875000000e+04
-2.273173437500000000e+04
-2.273233789062500000e+04
-2.273249023437500000e+04
-2.273397656250000000e+04
-2.273424414062500000e+04
-2.273431250000000000e+04
-2.273437109375000000e+04
-2.273448632812500000e+04
-2.273454687500000000e+04
-2.273466601562500000e+04
-2.273466992187500000e+04
-2.273462304687500000e+04
-2.273451953125000000e+04
-2.273426367187500000e+04
-2.273401953125000000e+04
-2.273387890625000000e+04
-2.273372656250000000e+04
-2.273340234375000000e+04
-2.273306054687500000e+04
-2.273252929687500000e+04
-2.273199023437500000e+04
-2.273168750000000000e+04
-2.273157617187500000e+04
-2.273143359375000000e+04
-2.273128906250000000e+04
-2.273120703125000000e+04
-2.273112695312500000e+04
-2.273042382812500000e+04
-2.273027539062500000e+04
-2.273019921875000000e+04
-2.272996289062500000e+04
-2.272972460937500000e+04
-2.272946679687500000e+04
-2.272928710937500000e+04
-2.272915429687500000e+04
-2.272908007812500000e+04
-2.272877539062500000e+04
-2.272864453125000000e+04
-2.272747656250000000e+04
-2.272752929687500000e+04
-2.272792382812500000e+04
-2.272955859375000000e+04
-2.273048828125000000e+04
-2.273120703125000000e+04
-2.273139062500000000e+04
-2.273127929687500000e+04
-2.273056054687500000e+04
-2.272983984375000000e+04
-2.272964062500000000e+04
-2.272721875000000000e+04
-2.272707226562500000e+04
-2.272597460937500000e+04
-2.272561523437500000e+04
-2.272550390625000000e+04
-2.272569335937500000e+04
-2.272627734375000000e+04
-2.272647070312500000e+04
-2.272605078125000000e+04
-2.272554492187500000e+04
-2.272535937500000000e+04
-2.272471679687500000e+04
-2.272460937500000000e+04
-2.272448828125000000e+04
-2.272516210937500000e+04
-2.272547070312500000e+04
-2.272586132812500000e+04
-2.272595312500000000e+04
-2.272558398437500000e+04
-2.272458203125000000e+04
-2.272434570312500000e+04
-2.272338085937500000e+04
-2.272238867187500000e+04
-2.272235156250000000e+04
-2.272287500000000000e+04
-2.272354882812500000e+04
-2.272413671875000000e+04
-2.272433203125000000e+04
-2.272453125000000000e+04
-2.272514062500000000e+04
-2.272532617187500000e+04
