-1.071737194061279297e+01 1.238683089613914490e-01 1.416087895631790161e-01 1.238683089613914490e-01 -1.079340744018554688e+01 2.660205820575356483e-03 1.416087895631790161e-01 2.660205820575356483e-03 -1.076497650146484375e+01
3.298011302947998047e+00 1.717180490493774414e+00 2.171961784362792969e+00 1.717180490493774414e+00 2.882408618927001953e+00 -8.315375447273254395e-02 2.171961784362792969e+00 -8.315375447273254395e-02 3.289827108383178711e+00
6.275036334991455078e+00 2.133666992187500000e+00 2.648085594177246094e+00 2.133666992187500000e+00 5.706591129302978516e+00 -1.368262171745300293e-01 2.648085594177246094e+00 -1.368262171745300293e-01 6.325311660766601562e+00
1.454568576812744141e+01 3.401426553726196289e+00 3.852405309677124023e+00 3.401426553726196289e+00 1.363531112670898438e+01 -5.298615694046020508e-01 3.852405309677124023e+00 -5.298615694046020508e-01 1.506037521362304688e+01
2.472444725036621094e+01 4.788935184478759766e+00 4.840022563934326172e+00 4.788935184478759766e+00 2.311246109008789062e+01 -9.442214369773864746e-01 4.840022563934326172e+00 -9.442214369773864746e-01 2.561738014221191406e+01
3.875938034057617188e+01 3.561633110046386719e+00 4.076431751251220703e+00 3.561633110046386719e+00 3.103894233703613281e+01 -1.699170827865600586e+00 4.076431751251220703e+00 -1.699170827865600586e+00 3.572350692749023438e+01
3.768874740600585938e+01 2.477557182312011719e+00 3.677460193634033203e+00 2.477557182312011719e+00 2.895716094970703125e+01 -1.911417007446289062e+00 3.677460193634033203e+00 -1.911417007446289062e+00 3.224008178710937500e+01
3.606365203857421875e+01 1.966597557067871094e+00 3.269398689270019531e+00 1.966597557067871094e+00 2.802975082397460938e+01 -1.878659963607788086e+00 3.269398689270019531e+00 -1.878659963607788086e+00 2.973691749572753906e+01
3.560971450805664062e+01 1.882681250572204590e+00 3.142616033554077148e+00 1.882681250572204590e+00 2.822377395629882812e+01 -1.760020375251770020e+00 3.142616033554077148e+00 -1.760020375251770020e+00 2.927201271057128906e+01
3.432720947265625000e+01 1.920412778854370117e+00 2.609111785888671875e+00 1.920412778854370117e+00 2.919150733947753906e+01 -1.314156413078308105e+00 2.609111785888671875e+00 -1.314156413078308105e+00 2.814005279541015625e+01
3.376466751098632812e+01 1.912855029106140137e+00 2.385608673095703125e+00 1.912855029106140137e+00 2.973251342773437500e+01 -1.099901437759399414e+00 2.385608673095703125e+00 -1.099901437759399414e+00 2.795104598999023438e+01
3.357120513916015625e+01 1.935117483139038086e+00 2.310751438140869141e+00 1.935117483139038086e+00 3.001759910583496094e+01 -9.465172886848449707e-01 2.310751438140869141e+00 -9.465172886848449707e-01 2.795270538330078125e+01
3.261582946777343750e+01 1.846638798713684082e+00 1.593634247779846191e+00 1.846638798713684082e+00 3.215867614746093750e+01 4.280242323875427246e-02 1.593634247779846191e+00 4.280242323875427246e-02 2.805146598815917969e+01
3.209174346923828125e+01 9.181425571441650391e-01 5.952281951904296875e-01 9.181425571441650391e-01 3.532660293579101562e+01 1.466433405876159668e+00 5.952281951904296875e-01 1.466433405876159668e+00 2.883179664611816406e+01
3.173945999145507812e+01 -1.635243184864521027e-02 2.703427076339721680e-01 -1.635243184864521027e-02 3.643138122558593750e+01 2.188018321990966797e+00 2.703427076339721680e-01 2.188018321990966797e+00 2.922570037841796875e+01
2.996489334106445312e+01 -3.263855457305908203e+00 1.519429534673690796e-01 -3.263855457305908203e+00 3.664908218383789062e+01 4.118117809295654297e+00 1.519429534673690796e-01 4.118117809295654297e+00 2.887085914611816406e+01
2.522419738769531250e+01 -6.631495952606201172e+00 1.786496520042419434e+00 -6.631495952606201172e+00 2.860361862182617188e+01 6.049445152282714844e+00 1.786496520042419434e+00 6.049445152282714844e+00 2.540529251098632812e+01
2.488084220886230469e+01 -6.632990837097167969e+00 2.167326688766479492e+00 -6.632990837097167969e+00 2.777503395080566406e+01 6.057688236236572266e+00 2.167326688766479492e+00 6.057688236236572266e+00 2.531690979003906250e+01
2.379895210266113281e+01 -6.075034141540527344e+00 4.012512207031250000e+00 -6.075034141540527344e+00 2.558453559875488281e+01 5.528966903686523438e+00 4.012512207031250000e+00 5.528966903686523438e+00 2.612981224060058594e+01
2.305011367797851562e+01 -5.132623672485351562e+00 5.398820877075195312e+00 -5.132623672485351562e+00 2.472857093811035156e+01 5.003758907318115234e+00 5.398820877075195312e+00 5.003758907318115234e+00 2.742473602294921875e+01
2.277265357971191406e+01 -4.821699142456054688e+00 5.824741363525390625e+00 -4.821699142456054688e+00 2.465208053588867188e+01 4.856150150299072266e+00 5.824741363525390625e+00 4.856150150299072266e+00 2.779941177368164062e+01
2.267391395568847656e+01 -4.342241764068603516e+00 6.245098590850830078e+00 -4.342241764068603516e+00 2.461496353149414062e+01 4.606407642364501953e+00 6.245098590850830078e+00 4.606407642364501953e+00 2.815048789978027344e+01
2.202957344055175781e+01 -3.604135751724243164e+00 6.679511070251464844e+00 -3.604135751724243164e+00 2.444339179992675781e+01 4.179047584533691406e+00 6.679511070251464844e+00 4.179047584533691406e+00 2.844265937805175781e+01
2.180490875244140625e+01 -2.948183774948120117e+00 6.877966880798339844e+00 -2.948183774948120117e+00 2.450798034667968750e+01 3.858121871948242188e+00 6.877966880798339844e+00 3.858121871948242188e+00 2.867946624755859375e+01
2.151533508300781250e+01 -2.673401832580566406e+00 6.999779701232910156e+00 -2.673401832580566406e+00 2.447700881958007812e+01 3.679818630218505859e+00 6.999779701232910156e+00 3.679818630218505859e+00 2.870713996887207031e+01
2.143983078002929688e+01 -2.396907329559326172e+00 7.045639038085937500e+00 -2.396907329559326172e+00 2.451612854003906250e+01 3.544338703155517578e+00 7.045639038085937500e+00 3.544338703155517578e+00 2.885983467102050781e+01
2.139193153381347656e+01 -2.039963245391845703e+00 7.082355022430419922e+00 -2.039963245391845703e+00 2.457371902465820312e+01 3.433208703994750977e+00 7.082355022430419922e+00 3.433208703994750977e+00 2.892861366271972656e+01
2.118220710754394531e+01 -1.762187600135803223e+00 7.088003158569335938e+00 -1.762187600135803223e+00 2.458796119689941406e+01 3.275145053863525391e+00 7.088003158569335938e+00 3.275145053863525391e+00 2.893879318237304688e+01
2.096890830993652344e+01 1.607880711555480957e+00 6.470574378967285156e+00 1.607880711555480957e+00 2.500730895996093750e+01 1.632476687431335449e+00 6.470574378967285156e+00 1.632476687431335449e+00 2.885248374938964844e+01
2.136671638488769531e+01 3.207025051116943359e+00 5.290578365325927734e+00 3.207025051116943359e+00 2.431727027893066406e+01 2.991072833538055420e-01 5.290578365325927734e+00 2.991072833538055420e-01 2.850296592712402344e+01
2.232070922851562500e+01 3.607403993606567383e+00 4.290258407592773438e+00 3.607403993606567383e+00 2.396110916137695312e+01 -5.606758594512939453e-01 4.290258407592773438e+00 -5.606758594512939453e-01 2.850081062316894531e+01
2.297880935668945312e+01 3.754142761230468750e+00 3.826557397842407227e+00 3.754142761230468750e+00 2.393342208862304688e+01 -8.883948326110839844e-01 3.826557397842407227e+00 -8.883948326110839844e-01 2.855980491638183594e+01
2.588242912292480469e+01 2.915368795394897461e+00 -9.635131359100341797e-01 2.915368795394897461e+00 2.638814353942871094e+01 2.848137617111206055e+00 -9.635131359100341797e-01 2.848137617111206055e+00 2.813796615600585938e+01
2.337908363342285156e+01 1.098127841949462891e+00 9.125767946243286133e-01 1.098127841949462891e+00 2.635593223571777344e+01 3.589792490005493164e+00 9.125767946243286133e-01 3.589792490005493164e+00 2.491046333312988281e+01
2.318454933166503906e+01 9.383692145347595215e-01 1.001580595970153809e+00 9.383692145347595215e-01 2.621219444274902344e+01 3.506723165512084961e+00 1.001580595970153809e+00 3.506723165512084961e+00 2.465754318237304688e+01
2.259292030334472656e+01 -1.144240945577621460e-01 1.701271414756774902e+00 -1.144240945577621460e-01 2.554709243774414062e+01 2.534747838973999023e+00 1.701271414756774902e+00 2.534747838973999023e+00 2.293708610534667969e+01
2.252139472961425781e+01 -2.974728047847747803e-01 1.794449210166931152e+00 -2.974728047847747803e-01 2.545618820190429688e+01 2.262023448944091797e+00 1.794449210166931152e+00 2.262023448944091797e+00 2.268777465820312500e+01
2.261205673217773438e+01 -4.912275969982147217e-01 1.976733803749084473e+00 -4.912275969982147217e-01 2.553518867492675781e+01 1.976093173027038574e+00 1.976733803749084473e+00 1.976093173027038574e+00 2.247516632080078125e+01
2.283499908447265625e+01 -9.717167615890502930e-01 2.127086639404296875e+00 -9.717167615890502930e-01 2.565699386596679688e+01 1.526682853698730469e+00 2.127086639404296875e+00 1.526682853698730469e+00 2.198252105712890625e+01
2.332304382324218750e+01 -1.486330509185791016e+00 2.323377609252929688e+00 -1.486330509185791016e+00 2.613852119445800781e+01 1.340007185935974121e+00 2.323377609252929688e+00 1.340007185935974121e+00 2.200274467468261719e+01
2.334769058227539062e+01 -1.615098834037780762e+00 2.482678413391113281e+00 -1.615098834037780762e+00 2.623778915405273438e+01 1.283095002174377441e+00 2.482678413391113281e+00 1.283095002174377441e+00 2.198864173889160156e+01
2.405163955688476562e+01 -1.988381385803222656e+00 2.789198637008666992e+00 -1.988381385803222656e+00 2.684937095642089844e+01 1.090031266212463379e+00 2.789198637008666992e+00 1.090031266212463379e+00 2.212218475341796875e+01
2.555464935302734375e+01 -2.782405614852905273e+00 3.493518114089965820e+00 -2.782405614852905273e+00 2.769223403930664062e+01 8.178101778030395508e-01 3.493518114089965820e+00 8.178101778030395508e-01 2.258769989013671875e+01
2.663552284240722656e+01 -3.390942096710205078e+00 3.877876520156860352e+00 -3.390942096710205078e+00 2.822044563293457031e+01 5.490868687629699707e-01 3.877876520156860352e+00 5.490868687629699707e-01 2.290462493896484375e+01
2.808505058288574219e+01 -4.199209213256835938e+00 4.260911941528320312e+00 -4.199209213256835938e+00 2.843234443664550781e+01 -9.359341114759445190e-02 4.260911941528320312e+00 -9.359341114759445190e-02 2.312446022033691406e+01
2.824254989624023438e+01 -4.451495647430419922e+00 4.300251007080078125e+00 -4.451495647430419922e+00 2.829188537597656250e+01 -2.974232137203216553e-01 4.300251007080078125e+00 -2.974232137203216553e-01 2.304923820495605469e+01
2.886618041992187500e+01 -4.801024913787841797e+00 4.332568168640136719e+00 -4.801024913787841797e+00 2.810891342163085938e+01 -8.397050499916076660e-01 4.332568168640136719e+00 -8.397050499916076660e-01 2.311955833435058594e+01
2.939063262939453125e+01 -5.351309776306152344e+00 4.264854907989501953e+00 -5.351309776306152344e+00 2.772451782226562500e+01 -1.539198637008666992e+00 4.264854907989501953e+00 -1.539198637008666992e+00 2.309925079345703125e+01
2.973283195495605469e+01 -5.825681686401367188e+00 4.111416816711425781e+00 -5.825681686401367188e+00 2.716621398925781250e+01 -2.346456289291381836e+00 4.111416816711425781e+00 -2.346456289291381836e+00 2.306133651733398438e+01
2.979848480224609375e+01 -5.973910331726074219e+00 4.025268077850341797e+00 -5.973910331726074219e+00 2.694312858581542969e+01 -2.583889961242675781e+00 4.025268077850341797e+00 -2.583889961242675781e+00 2.306704139709472656e+01
2.990362930297851562e+01 -6.328186035156250000e+00 3.645889997482299805e+00 -6.328186035156250000e+00 2.583795166015625000e+01 -3.698212146759033203e+00 3.645889997482299805e+00 -3.698212146759033203e+00 2.292625045776367188e+01
2.988402175903320312e+01 -6.336631774902343750e+00 3.387318849563598633e+00 -6.336631774902343750e+00 2.538493537902832031e+01 -3.974844217300415039e+00 3.387318849563598633e+00 -3.974844217300415039e+00 2.292550086975097656e+01
2.977353096008300781e+01 -5.962160110473632812e+00 3.056611061096191406e+00 -5.962160110473632812e+00 2.503116989135742188e+01 -4.182287693023681641e+00 3.056611061096191406e+00 -4.182287693023681641e+00 2.329829216003417969e+01
2.931529426574707031e+01 -3.523775577545166016e+00 2.137434720993041992e+00 -3.523775577545166016e+00 2.429645156860351562e+01 -2.341403484344482422e+00 2.137434720993041992e+00 -2.341403484344482422e+00 2.464498138427734375e+01
2.955399322509765625e+01 -2.620094776153564453e+00 1.924784779548645020e+00 -2.620094776153564453e+00 2.469719123840332031e+01 -1.139100790023803711e+00 1.924784779548645020e+00 -1.139100790023803711e+00 2.551935005187988281e+01
2.985327529907226562e+01 -1.691289663314819336e+00 1.712827920913696289e+00 -1.691289663314819336e+00 2.522440528869628906e+01 1.904542595148086548e-01 1.712827920913696289e+00 1.904542595148086548e-01 2.677637481689453125e+01
2.865670967102050781e+01 2.964179515838623047e-01 1.374782681465148926e+00 2.964179515838623047e-01 2.403840827941894531e+01 2.070580244064331055e+00 1.374782681465148926e+00 2.070580244064331055e+00 2.791743087768554688e+01
2.409500122070312500e+01 3.002116441726684570e+00 4.241475164890289307e-01 3.002116441726684570e+00 2.005638694763183594e+01 4.097522258758544922e+00 4.241475164890289307e-01 4.097522258758544922e+00 2.605636787414550781e+01
2.098595619201660156e+01 4.168009281158447266e+00 1.422969251871109009e-02 4.168009281158447266e+00 1.762539863586425781e+01 4.387009143829345703e+00 1.422969251871109009e-02 4.387009143829345703e+00 2.430464553833007812e+01
1.785165405273437500e+01 5.310819149017333984e+00 -4.815334379673004150e-01 5.310819149017333984e+00 1.523722648620605469e+01 4.080310344696044922e+00 -4.815334379673004150e-01 4.080310344696044922e+00 2.183436584472656250e+01
1.646885490417480469e+01 5.827873706817626953e+00 -6.396566629409790039e-01 5.827873706817626953e+00 1.450355815887451172e+01 3.092245340347290039e+00 -6.396566629409790039e-01 3.092245340347290039e+00 2.007298088073730469e+01
1.618563079833984375e+01 5.834305286407470703e+00 -5.803698301315307617e-01 5.834305286407470703e+00 1.435757350921630859e+01 2.847385406494140625e+00 -5.803698301315307617e-01 2.847385406494140625e+00 1.974502182006835938e+01
1.598068141937255859e+01 5.805123329162597656e+00 -4.846312403678894043e-01 5.805123329162597656e+00 1.413068008422851562e+01 2.273776769638061523e+00 -4.846312403678894043e-01 2.273776769638061523e+00 1.916163444519042969e+01
1.602393913269042969e+01 5.689651012420654297e+00 -1.923849284648895264e-01 5.689651012420654297e+00 1.425134468078613281e+01 1.385195255279541016e+00 -1.923849284648895264e-01 1.385195255279541016e+00 1.882059669494628906e+01
1.709552955627441406e+01 5.188965797424316406e+00 4.575306773185729980e-01 5.188965797424316406e+00 1.539262294769287109e+01 -1.868104040622711182e-01 4.575306773185729980e-01 -1.868104040622711182e-01 1.959823417663574219e+01
1.763333892822265625e+01 4.779978275299072266e+00 8.686048984527587891e-01 4.779978275299072266e+00 1.592575454711914062e+01 -9.078677296638488770e-01 8.686048984527587891e-01 -9.078677296638488770e-01 2.019756889343261719e+01
1.845029067993164062e+01 4.158421039581298828e+00 1.503599643707275391e+00 4.158421039581298828e+00 1.705846405029296875e+01 -1.875852346420288086e+00 1.503599643707275391e+00 -1.875852346420288086e+00 2.122823524475097656e+01
1.992970657348632812e+01 2.782419204711914062e+00 2.639995336532592773e+00 2.782419204711914062e+00 1.916725158691406250e+01 -3.242657423019409180e+00 2.639995336532592773e+00 -3.242657423019409180e+00 2.396567535400390625e+01
2.122476196289062500e+01 5.294351577758789062e-01 3.676848411560058594e+00 5.294351577758789062e-01 2.164190864562988281e+01 -4.177053451538085938e+00 3.676848411560058594e+00 -4.177053451538085938e+00 2.792939376831054688e+01
2.305669593811035156e+01 -2.648215532302856445e+00 3.223447561264038086e+00 -2.648215532302856445e+00 2.418507575988769531e+01 -3.479666709899902344e+00 3.223447561264038086e+00 -3.479666709899902344e+00 3.314241790771484375e+01
2.341698074340820312e+01 -3.613158941268920898e+00 2.578340768814086914e+00 -3.613158941268920898e+00 2.452295303344726562e+01 -2.846185684204101562e+00 2.578340768814086914e+00 -2.846185684204101562e+00 3.453271484375000000e+01
2.399894714355468750e+01 -4.373441219329833984e+00 1.644940853118896484e+00 -4.373441219329833984e+00 2.447144699096679688e+01 -2.110518693923950195e+00 1.644940853118896484e+00 -2.110518693923950195e+00 3.585223770141601562e+01
2.423031425476074219e+01 -4.486186027526855469e+00 1.449442982673645020e+00 -4.486186027526855469e+00 2.437034606933593750e+01 -1.966725230216979980e+00 1.449442982673645020e+00 -1.966725230216979980e+00 3.611897659301757812e+01
2.490698432922363281e+01 -4.649581909179687500e+00 4.655344188213348389e-01 -4.649581909179687500e+00 2.390192985534667969e+01 -1.346035122871398926e+00 4.655344188213348389e-01 -1.346035122871398926e+00 3.694150924682617188e+01
2.465187644958496094e+01 -2.901919126510620117e+00 -2.127876043319702148e+00 -2.901919126510620117e+00 2.099956321716308594e+01 2.577452361583709717e-01 -2.127876043319702148e+00 2.577452361583709717e-01 3.353336334228515625e+01
2.430853652954101562e+01 -2.610375165939331055e+00 -2.447086095809936523e+00 -2.610375165939331055e+00 2.059535598754882812e+01 5.165888667106628418e-01 -2.447086095809936523e+00 5.165888667106628418e-01 3.265979385375976562e+01
2.004883003234863281e+01 -1.713630199432373047e+00 -3.341182231903076172e+00 -1.713630199432373047e+00 1.793091201782226562e+01 2.500277996063232422e+00 -3.341182231903076172e+00 2.500277996063232422e+00 2.565770339965820312e+01
1.934833908081054688e+01 -1.767375826835632324e+00 -3.282941579818725586e+00 -1.767375826835632324e+00 1.732423019409179688e+01 2.873700618743896484e+00 -3.282941579818725586e+00 2.873700618743896484e+00 2.439814949035644531e+01
2.140504837036132812e+01 -2.420452594757080078e+00 -1.417044639587402344e+00 -2.420452594757080078e+00 2.065394973754882812e+01 8.594556808471679688e+00 -1.417044639587402344e+00 8.594556808471679688e+00 2.057840347290039062e+01
2.170817375183105469e+01 -2.329411983489990234e+00 -1.283291101455688477e+00 -2.329411983489990234e+00 2.104192352294921875e+01 8.820349693298339844e+00 -1.283291101455688477e+00 8.820349693298339844e+00 2.065891456604003906e+01
2.211301803588867188e+01 -2.261129617691040039e+00 -1.089478492736816406e+00 -2.261129617691040039e+00 2.151415252685546875e+01 8.977023124694824219e+00 -1.089478492736816406e+00 8.977023124694824219e+00 2.080550003051757812e+01
2.623273086547851562e+01 -1.232967495918273926e+00 6.637525558471679688e-01 -1.232967495918273926e+00 2.750465774536132812e+01 9.302826881408691406e+00 6.637525558471679688e-01 9.302826881408691406e+00 2.309788894653320312e+01
2.647133064270019531e+01 -1.158776521682739258e+00 7.243811488151550293e-01 -1.158776521682739258e+00 2.775251960754394531e+01 9.127470970153808594e+00 7.243811488151550293e-01 9.127470970153808594e+00 2.323518753051757812e+01
2.601250648498535156e+01 -6.378483772277832031e-01 4.468160867691040039e-01 -6.378483772277832031e-01 2.669543075561523438e+01 5.144269466400146484e+00 4.468160867691040039e-01 5.144269466400146484e+00 2.234479522705078125e+01
2.520328903198242188e+01 -4.334290027618408203e-01 2.865413129329681396e-01 -4.334290027618408203e-01 2.550045013427734375e+01 3.460019111633300781e+00 2.865413129329681396e-01 3.460019111633300781e+00 2.165507125854492188e+01
2.278318786621093750e+01 -9.730568528175354004e-01 -1.268981099128723145e-01 -9.730568528175354004e-01 2.217689132690429688e+01 -1.061633706092834473e+00 -1.268981099128723145e-01 -1.061633706092834473e+00 1.956437110900878906e+01
2.278605842590332031e+01 -1.191556215286254883e+00 -1.700679957866668701e-01 -1.191556215286254883e+00 2.222376441955566406e+01 -1.582673907279968262e+00 -1.700679957866668701e-01 -1.582673907279968262e+00 1.977052879333496094e+01
2.318761634826660156e+01 -1.527375459671020508e+00 -1.623374521732330322e-01 -1.527375459671020508e+00 2.263926887512207031e+01 -2.586774110794067383e+00 -1.623374521732330322e-01 -2.586774110794067383e+00 2.068282699584960938e+01
2.552240562438964844e+01 -1.330215930938720703e+00 -7.147005200386047363e-01 -1.330215930938720703e+00 2.540766143798828125e+01 -5.707922935485839844e+00 -7.147005200386047363e-01 -5.707922935485839844e+00 2.550741386413574219e+01
2.565363883972167969e+01 -1.263129711151123047e+00 -8.154438734054565430e-01 -1.263129711151123047e+00 2.549799919128417969e+01 -6.031974792480468750e+00 -8.154438734054565430e-01 -6.031974792480468750e+00 2.594381904602050781e+01
2.612759590148925781e+01 -9.953138232231140137e-01 -1.215672492980957031e+00 -9.953138232231140137e-01 2.607595443725585938e+01 -6.958943367004394531e+00 -1.215672492980957031e+00 -6.958943367004394531e+00 2.743981552124023438e+01
2.625494384765625000e+01 -7.574815154075622559e-01 -1.911812424659729004e+00 -7.574815154075622559e-01 2.686763954162597656e+01 -8.048899650573730469e+00 -1.911812424659729004e+00 -8.048899650573730469e+00 2.919725990295410156e+01
2.541066932678222656e+01 -6.691956520080566406e-01 -2.518451452255249023e+00 -6.691956520080566406e-01 2.664432907104492188e+01 -9.230619430541992188e+00 -2.518451452255249023e+00 -9.230619430541992188e+00 2.995979118347167969e+01
2.508102416992187500e+01 -6.753726601600646973e-01 -2.587708950042724609e+00 -6.753726601600646973e-01 2.647161102294921875e+01 -9.283580780029296875e+00 -2.587708950042724609e+00 -9.283580780029296875e+00 2.995625114440917969e+01
2.498676300048828125e+01 -7.767385840415954590e-01 -2.615705251693725586e+00 -7.767385840415954590e-01 2.634693527221679688e+01 -9.310190200805664062e+00 -2.615705251693725586e+00 -9.310190200805664062e+00 2.995551490783691406e+01
2.445541572570800781e+01 -1.034672260284423828e+00 -2.690241813659667969e+00 -1.034672260284423828e+00 2.599529266357421875e+01 -9.401473999023437500e+00 -2.690241813659667969e+00 -9.401473999023437500e+00 2.984596252441406250e+01
2.375793647766113281e+01 -1.878221631050109863e+00 -2.453596591949462891e+00 -1.878221631050109863e+00 2.572030830383300781e+01 -8.956981658935546875e+00 -2.453596591949462891e+00 -8.956981658935546875e+00 2.922997665405273438e+01
2.377197456359863281e+01 -2.064211130142211914e+00 -2.348088741302490234e+00 -2.064211130142211914e+00 2.572189140319824219e+01 -8.804514884948730469e+00 -2.348088741302490234e+00 -8.804514884948730469e+00 2.920718002319335938e+01
2.368669128417968750e+01 -2.235888957977294922e+00 -2.324611902236938477e+00 -2.235888957977294922e+00 2.558686256408691406e+01 -8.671182632446289062e+00 -2.324611902236938477e+00 -8.671182632446289062e+00 2.892332839965820312e+01
2.356969261169433594e+01 -2.550880432128906250e+00 -2.184576749801635742e+00 -2.550880432128906250e+00 2.566879081726074219e+01 -8.319411277770996094e+00 -2.184576749801635742e+00 -8.319411277770996094e+00 2.867081642150878906e+01
2.355836677551269531e+01 -2.854199171066284180e+00 -2.086942911148071289e+00 -2.854199171066284180e+00 2.578870201110839844e+01 -7.825795650482177734e+00 -2.086942911148071289e+00 -7.825795650482177734e+00 2.849066543579101562e+01
2.375908279418945312e+01 -3.456177949905395508e+00 -1.875910162925720215e+00 -3.456177949905395508e+00 2.603745460510253906e+01 -6.727204322814941406e+00 -1.875910162925720215e+00 -6.727204322814941406e+00 2.811115837097167969e+01
2.408033943176269531e+01 -3.665328025817871094e+00 -1.949568867683410645e+00 -3.665328025817871094e+00 2.646020317077636719e+01 -6.147300720214843750e+00 -1.949568867683410645e+00 -6.147300720214843750e+00 2.794983673095703125e+01
2.438317871093750000e+01 -4.055971145629882812e+00 -2.102056980133056641e+00 -4.055971145629882812e+00 2.707468223571777344e+01 -4.188440322875976562e+00 -2.102056980133056641e+00 -4.188440322875976562e+00 2.700189781188964844e+01
2.460664558410644531e+01 -3.701687097549438477e+00 -2.710587501525878906e+00 -3.701687097549438477e+00 2.762714004516601562e+01 -2.372769355773925781e+00 -2.710587501525878906e+00 -2.372769355773925781e+00 2.610710525512695312e+01
2.456854438781738281e+01 -3.535637378692626953e+00 -2.933176279067993164e+00 -3.535637378692626953e+00 2.761369705200195312e+01 -1.837460160255432129e+00 -2.933176279067993164e+00 -1.837460160255432129e+00 2.572674942016601562e+01
2.459181404113769531e+01 -2.826922893524169922e+00 -3.674822807312011719e+00 -2.826922893524169922e+00 2.773228836059570312e+01 -7.896098494529724121e-01 -3.674822807312011719e+00 -7.896098494529724121e-01 2.512836837768554688e+01
2.560135078430175781e+01 -5.666725039482116699e-01 -5.397445201873779297e+00 -5.666725039482116699e-01 2.813382720947265625e+01 4.822102189064025879e-01 -5.397445201873779297e+00 4.822102189064025879e-01 2.462221908569335938e+01
2.575382423400878906e+01 -3.983615040779113770e-01 -5.528911590576171875e+00 -3.983615040779113770e-01 2.816300582885742188e+01 6.248242855072021484e-01 -5.528911590576171875e+00 6.248242855072021484e-01 2.462152671813964844e+01
2.605171966552734375e+01 -1.528797578066587448e-02 -5.781411647796630859e+00 -1.528797578066587448e-02 2.811588287353515625e+01 9.711421728134155273e-01 -5.781411647796630859e+00 9.711421728134155273e-01 2.449671363830566406e+01
2.614978981018066406e+01 1.159077137708663940e-01 -5.835585117340087891e+00 1.159077137708663940e-01 2.814246749877929688e+01 1.172948718070983887e+00 -5.835585117340087891e+00 1.172948718070983887e+00 2.456435203552246094e+01
2.667469215393066406e+01 6.338869333267211914e-01 -5.990000247955322266e+00 6.338869333267211914e-01 2.817745399475097656e+01 1.721046209335327148e+00 -5.990000247955322266e+00 1.721046209335327148e+00 2.465264892578125000e+01
2.686065101623535156e+01 7.708320617675781250e-01 -6.034638404846191406e+00 7.708320617675781250e-01 2.818204879760742188e+01 1.946907877922058105e+00 -6.034638404846191406e+00 1.946907877922058105e+00 2.464117813110351562e+01
2.777217674255371094e+01 1.448720693588256836e+00 -6.063546657562255859e+00 1.448720693588256836e+00 2.825872039794921875e+01 3.275386810302734375e+00 -6.063546657562255859e+00 3.275386810302734375e+00 2.492782783508300781e+01
2.871368789672851562e+01 1.829692006111145020e+00 -5.242181301116943359e+00 1.829692006111145020e+00 2.918216896057128906e+01 5.138781070709228516e+00 -5.242181301116943359e+00 5.138781070709228516e+00 2.497554016113281250e+01
2.881526374816894531e+01 1.791042208671569824e+00 -5.044130325317382812e+00 1.791042208671569824e+00 2.931411933898925781e+01 5.410456180572509766e+00 -5.044130325317382812e+00 5.410456180572509766e+00 2.502347183227539062e+01
2.893602561950683594e+01 1.757233142852783203e+00 -4.857045650482177734e+00 1.757233142852783203e+00 2.954131698608398438e+01 5.613948345184326172e+00 -4.857045650482177734e+00 5.613948345184326172e+00 2.499842262268066406e+01
2.915832138061523438e+01 1.427403330802917480e+00 -4.255979537963867188e+00 1.427403330802917480e+00 3.019983673095703125e+01 6.261072158813476562e+00 -4.255979537963867188e+00 6.261072158813476562e+00 2.513689804077148438e+01
2.883707237243652344e+01 -5.261458158493041992e-01 -2.264274120330810547e+00 -5.261458158493041992e-01 3.155722236633300781e+01 7.078014373779296875e+00 -2.264274120330810547e+00 7.078014373779296875e+00 2.479321289062500000e+01
2.875001144409179688e+01 -7.169431447982788086e-01 -2.048533439636230469e+00 -7.169431447982788086e-01 3.162593650817871094e+01 7.090236663818359375e+00 -2.048533439636230469e+00 7.090236663818359375e+00 2.484072303771972656e+01
2.851301765441894531e+01 -1.928194403648376465e+00 -9.295417070388793945e-01 -1.928194403648376465e+00 3.143735885620117188e+01 6.507246971130371094e+00 -9.295417070388793945e-01 6.507246971130371094e+00 2.462902641296386719e+01
2.839418411254882812e+01 -2.441934108734130859e+00 -6.549169421195983887e-01 -2.441934108734130859e+00 3.129337692260742188e+01 6.179275035858154297e+00 -6.549169421195983887e-01 6.179275035858154297e+00 2.446481895446777344e+01
2.956243133544921875e+01 -4.413648128509521484e+00 1.420490909367799759e-03 -4.413648128509521484e+00 3.131793212890625000e+01 3.720652580261230469e+00 1.420490909367799759e-03 3.720652580261230469e+00 2.487854957580566406e+01
3.100869178771972656e+01 -4.966963768005371094e+00 1.554374694824218750e-01 -4.966963768005371094e+00 3.157951164245605469e+01 2.127252101898193359e+00 1.554374694824218750e-01 2.127252101898193359e+00 2.585366249084472656e+01
3.144549369812011719e+01 -5.064561367034912109e+00 2.997782826423645020e-01 -5.064561367034912109e+00 3.160781478881835938e+01 1.552833676338195801e+00 2.997782826423645020e-01 1.552833676338195801e+00 2.620130920410156250e+01
3.230603027343750000e+01 -5.007299423217773438e+00 6.583584547042846680e-01 -5.007299423217773438e+00 3.156381988525390625e+01 5.889620184898376465e-01 6.583584547042846680e-01 5.889620184898376465e-01 2.683127784729003906e+01
3.248497772216796875e+01 -4.983899116516113281e+00 7.257344722747802734e-01 -4.983899116516113281e+00 3.158697891235351562e+01 3.247037827968597412e-01 7.257344722747802734e-01 3.247037827968597412e-01 2.696729660034179688e+01
3.261081314086914062e+01 -5.012232303619384766e+00 8.868876695632934570e-01 -5.012232303619384766e+00 3.152942657470703125e+01 6.881641596555709839e-02 8.868876695632934570e-01 6.881641596555709839e-02 2.707928085327148438e+01
2.992903900146484375e+01 -4.986075878143310547e+00 3.480230093002319336e+00 -4.986075878143310547e+00 2.647443389892578125e+01 -2.105041265487670898e+00 3.480230093002319336e+00 -2.105041265487670898e+00 2.637582397460937500e+01
2.952611923217773438e+01 -5.017559528350830078e+00 3.587058067321777344e+00 -5.017559528350830078e+00 2.609830665588378906e+01 -2.087228059768676758e+00 3.587058067321777344e+00 -2.087228059768676758e+00 2.626348114013671875e+01
2.555910491943359375e+01 -4.707809925079345703e+00 3.076900005340576172e+00 -4.707809925079345703e+00 2.159588432312011719e+01 -2.107220411300659180e+00 3.076900005340576172e+00 -2.107220411300659180e+00 2.480762481689453125e+01