1.259044170379638672e+01 -6.027572154998779297e-01 7.860645651817321777e-02 -6.027572154998779297e-01 1.228380584716796875e+01 2.942318022251129150e-01 7.860645651817321777e-02 2.942318022251129150e-01 1.277269935607910156e+01
3.149740028381347656e+01 -7.523481369018554688e+00 1.544092655181884766e+00 -7.523481369018554688e+00 2.664840316772460938e+01 3.136086463928222656e+00 1.544092655181884766e+00 3.136086463928222656e+00 1.497117233276367188e+01
3.597482299804687500e+01 -8.445506095886230469e+00 1.815573215484619141e+00 -8.445506095886230469e+00 3.018058395385742188e+01 3.405072927474975586e+00 1.815573215484619141e+00 3.405072927474975586e+00 1.601950073242187500e+01
4.676925277709960938e+01 -1.002920246124267578e+01 2.330436706542968750e+00 -1.002920246124267578e+01 3.857667922973632812e+01 3.772833347320556641e+00 2.330436706542968750e+00 3.772833347320556641e+00 1.954883956909179688e+01
5.664686965942382812e+01 -9.988108634948730469e+00 2.733311414718627930e+00 -9.988108634948730469e+00 4.545889663696289062e+01 3.978949069976806641e+00 2.733311414718627930e+00 3.978949069976806641e+00 2.469697761535644531e+01
5.171799468994140625e+01 -1.436947703361511230e+00 2.333247661590576172e+00 -1.436947703361511230e+00 3.450684738159179688e+01 3.296640157699584961e+00 2.333247661590576172e+00 3.296640157699584961e+00 3.749130249023437500e+01
4.373725509643554688e+01 -1.375870704650878906e-01 1.900355458259582520e+00 -1.375870704650878906e-01 2.621686363220214844e+01 2.810571193695068359e+00 1.900355458259582520e+00 2.810571193695068359e+00 3.626007080078125000e+01
3.681551361083984375e+01 3.236197680234909058e-02 1.566113948822021484e+00 3.236197680234909058e-02 2.014714622497558594e+01 2.450187444686889648e+00 1.566113948822021484e+00 2.450187444686889648e+00 3.388252639770507812e+01
3.519160079956054688e+01 -6.119240820407867432e-02 1.488583803176879883e+00 -6.119240820407867432e-02 1.894311904907226562e+01 2.440380573272705078e+00 1.488583803176879883e+00 2.440380573272705078e+00 3.318225479125976562e+01
3.146205139160156250e+01 -4.385768473148345947e-01 1.430508494377136230e+00 -4.385768473148345947e-01 1.679093742370605469e+01 2.497811555862426758e+00 1.430508494377136230e+00 2.497811555862426758e+00 3.116186714172363281e+01
3.081294059753417969e+01 -5.230025053024291992e-01 1.482937216758728027e+00 -5.230025053024291992e-01 1.655396652221679688e+01 2.524944782257080078e+00 1.482937216758728027e+00 2.524944782257080078e+00 3.053850173950195312e+01
3.044304466247558594e+01 -5.715619921684265137e-01 1.504897475242614746e+00 -5.715619921684265137e-01 1.647891616821289062e+01 2.523209571838378906e+00 1.504897475242614746e+00 2.523209571838378906e+00 3.022498512268066406e+01
2.942794609069824219e+01 -4.342836737632751465e-01 1.853809833526611328e+00 -4.342836737632751465e-01 1.679314613342285156e+01 2.463062047958374023e+00 1.853809833526611328e+00 2.463062047958374023e+00 2.862155532836914062e+01
2.958370399475097656e+01 5.597581267356872559e-01 2.178049087524414062e+00 5.597581267356872559e-01 1.824768447875976562e+01 1.957527756690979004e+00 2.178049087524414062e+00 1.957527756690979004e+00 2.681815147399902344e+01
2.972828674316406250e+01 1.278323292732238770e+00 2.082881212234497070e+00 1.278323292732238770e+00 1.915520095825195312e+01 1.523973107337951660e+00 2.082881212234497070e+00 1.523973107337951660e+00 2.636498451232910156e+01
2.762731361389160156e+01 2.600775241851806641e+00 9.291984438896179199e-01 2.600775241851806641e+00 2.028648757934570312e+01 3.640582859516143799e-01 9.291984438896179199e-01 3.640582859516143799e-01 2.652719879150390625e+01
2.065338516235351562e+01 7.202912569046020508e-01 -2.666004419326782227e+00 7.202912569046020508e-01 1.734630203247070312e+01 1.796343326568603516e+00 -2.666004419326782227e+00 1.796343326568603516e+00 3.193375778198242188e+01
2.084471321105957031e+01 3.654365241527557373e-01 -3.154534816741943359e+00 3.654365241527557373e-01 1.748249626159667969e+01 2.094764232635498047e+00 -3.154534816741943359e+00 2.094764232635498047e+00 3.258006286621093750e+01
2.429358482360839844e+01 -8.718415498733520508e-01 -5.406258583068847656e+00 -8.718415498733520508e-01 2.014183807373046875e+01 2.884519338607788086e+00 -5.406258583068847656e+00 2.884519338607788086e+00 3.550861358642578125e+01
2.944497680664062500e+01 -1.358123183250427246e+00 -7.237510204315185547e+00 -1.358123183250427246e+00 2.449203872680664062e+01 2.788364887237548828e+00 -7.237510204315185547e+00 2.788364887237548828e+00 3.807637023925781250e+01
3.135568237304687500e+01 -1.443195581436157227e+00 -7.801163673400878906e+00 -1.443195581436157227e+00 2.615315055847167969e+01 2.592622280120849609e+00 -7.801163673400878906e+00 2.592622280120849609e+00 3.893484115600585938e+01
3.336381530761718750e+01 -1.503415107727050781e+00 -8.332419395446777344e+00 -1.503415107727050781e+00 2.818277549743652344e+01 2.391372680664062500e+00 -8.332419395446777344e+00 2.391372680664062500e+00 3.994479370117187500e+01
3.636497497558593750e+01 -1.615335345268249512e+00 -9.020491600036621094e+00 -1.615335345268249512e+00 3.135648536682128906e+01 1.986617803573608398e+00 -9.020491600036621094e+00 1.986617803573608398e+00 4.151486206054687500e+01
3.827889251708984375e+01 -1.768306493759155273e+00 -9.480732917785644531e+00 -1.768306493759155273e+00 3.362298202514648438e+01 1.662934660911560059e+00 -9.480732917785644531e+00 1.662934660911560059e+00 4.257939910888671875e+01
3.914925384521484375e+01 -1.872890233993530273e+00 -9.654817581176757812e+00 -1.872890233993530273e+00 3.472071456909179688e+01 1.510926246643066406e+00 -9.654817581176757812e+00 1.510926246643066406e+00 4.304807662963867188e+01
4.005072784423828125e+01 -2.007649898529052734e+00 -9.778542518615722656e+00 -2.007649898529052734e+00 3.580485534667968750e+01 1.384064793586730957e+00 -9.778542518615722656e+00 1.384064793586730957e+00 4.353296279907226562e+01
4.082526397705078125e+01 -2.137821912765502930e+00 -9.877797126770019531e+00 -2.137821912765502930e+00 3.688998031616210938e+01 1.250445365905761719e+00 -9.877797126770019531e+00 1.250445365905761719e+00 4.397894287109375000e+01
4.157628250122070312e+01 -2.277915954589843750e+00 -9.962973594665527344e+00 -2.277915954589843750e+00 3.800159072875976562e+01 1.116957664489746094e+00 -9.962973594665527344e+00 1.116957664489746094e+00 4.448242187500000000e+01
4.635463714599609375e+01 -5.153736114501953125e+00 -9.881903648376464844e+00 -5.153736114501953125e+00 4.850564956665039062e+01 2.108713239431381226e-01 -9.881903648376464844e+00 2.108713239431381226e-01 4.845011138916015625e+01
4.746002578735351562e+01 -7.236944198608398438e+00 -9.442557334899902344e+00 -7.236944198608398438e+00 5.486318206787109375e+01 3.244011700153350830e-01 -9.442557334899902344e+00 3.244011700153350830e-01 5.018470764160156250e+01
4.739500427246093750e+01 -7.920307159423828125e+00 -9.444529533386230469e+00 -7.920307159423828125e+00 5.891453552246093750e+01 8.668276667594909668e-01 -9.444529533386230469e+00 8.668276667594909668e-01 5.102344131469726562e+01
4.729592132568359375e+01 -7.944204330444335938e+00 -9.516931533813476562e+00 -7.944204330444335938e+00 6.033195114135742188e+01 1.201767563819885254e+00 -9.516931533813476562e+00 1.201767563819885254e+00 5.126705169677734375e+01
4.958837890625000000e+01 1.901512891054153442e-01 -1.407176971435546875e+01 1.901512891054153442e-01 7.757654571533203125e+01 7.333319664001464844e+00 -1.407176971435546875e+01 7.333319664001464844e+00 5.549760818481445312e+01
5.001511383056640625e+01 6.487580776214599609e+00 -1.342692852020263672e+01 6.487580776214599609e+00 7.487625885009765625e+01 4.515878677368164062e+00 -1.342692852020263672e+01 4.515878677368164062e+00 5.497386550903320312e+01
4.992490768432617188e+01 6.780306339263916016e+00 -1.326466655731201172e+01 6.780306339263916016e+00 7.394371032714843750e+01 4.229133129119873047e+00 -1.326466655731201172e+01 4.229133129119873047e+00 5.477647781372070312e+01
4.889701080322265625e+01 7.930388927459716797e+00 -1.205518531799316406e+01 7.930388927459716797e+00 6.595065307617187500e+01 2.615870952606201172e+00 -1.205518531799316406e+01 2.615870952606201172e+00 5.308864593505859375e+01
4.830507278442382812e+01 7.993924617767333984e+00 -1.184257411956787109e+01 7.993924617767333984e+00 6.346028518676757812e+01 2.330957174301147461e+00 -1.184257411956787109e+01 2.330957174301147461e+00 5.265473937988281250e+01
4.756547927856445312e+01 7.973402023315429688e+00 -1.170374393463134766e+01 7.973402023315429688e+00 6.097721481323242188e+01 2.116498470306396484e+00 -1.170374393463134766e+01 2.116498470306396484e+00 5.216450119018554688e+01
4.538309860229492188e+01 7.762660503387451172e+00 -1.180718040466308594e+01 7.762660503387451172e+00 5.612398529052734375e+01 1.978461384773254395e+00 -1.180718040466308594e+01 1.978461384773254395e+00 5.153231048583984375e+01
4.308541107177734375e+01 7.366064071655273438e+00 -1.213375854492187500e+01 7.366064071655273438e+00 5.272245788574218750e+01 2.135791778564453125e+00 -1.213375854492187500e+01 2.135791778564453125e+00 5.123319625854492188e+01
4.215651321411132812e+01 7.224250793457031250e+00 -1.228277111053466797e+01 7.224250793457031250e+00 5.167694091796875000e+01 2.199060201644897461e+00 -1.228277111053466797e+01 2.199060201644897461e+00 5.116974258422851562e+01
3.898437500000000000e+01 6.557066440582275391e+00 -1.287543487548828125e+01 6.557066440582275391e+00 4.865121459960937500e+01 2.606128692626953125e+00 -1.287543487548828125e+01 2.606128692626953125e+00 5.101670455932617188e+01
3.254790115356445312e+01 4.963804721832275391e+00 -1.377352428436279297e+01 4.963804721832275391e+00 4.401794433593750000e+01 3.567703485488891602e+00 -1.377352428436279297e+01 3.567703485488891602e+00 5.078744888305664062e+01
2.730698204040527344e+01 3.254439830780029297e+00 -1.416051483154296875e+01 3.254439830780029297e+00 4.078334045410156250e+01 4.399895191192626953e+00 -1.416051483154296875e+01 4.399895191192626953e+00 5.060050964355468750e+01
2.138077354431152344e+01 1.031140923500061035e+00 -1.399573516845703125e+01 1.031140923500061035e+00 3.712181472778320312e+01 5.196522712707519531e+00 -1.399573516845703125e+01 5.196522712707519531e+00 5.011064910888671875e+01
2.049562835693359375e+01 6.169894337654113770e-01 -1.388517570495605469e+01 6.169894337654113770e-01 3.649079132080078125e+01 5.283083438873291016e+00 -1.388517570495605469e+01 5.283083438873291016e+00 5.000233840942382812e+01
1.878813552856445312e+01 -1.834042817354202271e-01 -1.352792930603027344e+01 -1.834042817354202271e-01 3.523793411254882812e+01 5.456278800964355469e+00 -1.352792930603027344e+01 5.456278800964355469e+00 4.969880294799804688e+01
1.669059562683105469e+01 -1.309813618659973145e+00 -1.285164451599121094e+01 -1.309813618659973145e+00 3.349602508544921875e+01 5.622550964355468750e+00 -1.285164451599121094e+01 5.622550964355468750e+00 4.914815139770507812e+01
1.542698478698730469e+01 -2.326730728149414062e+00 -1.198559856414794922e+01 -2.326730728149414062e+00 3.183464813232421875e+01 5.762087345123291016e+00 -1.198559856414794922e+01 5.762087345123291016e+00 4.847870254516601562e+01
1.508225250244140625e+01 -2.634412050247192383e+00 -1.164377975463867188e+01 -2.634412050247192383e+00 3.128540420532226562e+01 5.810334682464599609e+00 -1.164377975463867188e+01 5.810334682464599609e+00 4.821413803100585938e+01
1.436315822601318359e+01 -3.976907491683959961e+00 -9.845366477966308594e+00 -3.976907491683959961e+00 2.863032913208007812e+01 6.054376602172851562e+00 -9.845366477966308594e+00 6.054376602172851562e+00 4.712985229492187500e+01
1.444039344787597656e+01 -4.428289413452148438e+00 -9.068019866943359375e+00 -4.428289413452148438e+00 2.766276741027832031e+01 6.276077270507812500e+00 -9.068019866943359375e+00 6.276077270507812500e+00 4.666514968872070312e+01
1.498478221893310547e+01 -5.326602458953857422e+00 -7.476489543914794922e+00 -5.326602458953857422e+00 2.560801506042480469e+01 6.824427127838134766e+00 -7.476489543914794922e+00 6.824427127838134766e+00 4.580204391479492188e+01
1.598964118957519531e+01 -7.765810966491699219e+00 -3.302474498748779297e+00 -7.765810966491699219e+00 1.899578475952148438e+01 9.943718910217285156e+00 -3.302474498748779297e+00 9.943718910217285156e+00 4.351191329956054688e+01
1.580456161499023438e+01 -8.551144599914550781e+00 -2.410270214080810547e+00 -8.551144599914550781e+00 1.675115966796875000e+01 1.096871185302734375e+01 -2.410270214080810547e+00 1.096871185302734375e+01 4.256476211547851562e+01
1.541233921051025391e+01 -9.222323417663574219e+00 -1.843710899353027344e+00 -9.222323417663574219e+00 1.460674953460693359e+01 1.179131031036376953e+01 -1.843710899353027344e+00 1.179131031036376953e+01 4.152781677246093750e+01
1.594515800476074219e+01 -9.925330162048339844e+00 -1.215002655982971191e+00 -9.925330162048339844e+00 1.224010372161865234e+01 1.270223522186279297e+01 -1.215002655982971191e+00 1.270223522186279297e+01 3.962611389160156250e+01
2.065121841430664062e+01 -8.941251754760742188e+00 -7.727260589599609375e-01 -8.941251754760742188e+00 1.323408031463623047e+01 1.289382648468017578e+01 -7.727260589599609375e-01 1.289382648468017578e+01 3.756719589233398438e+01
2.524467277526855469e+01 -7.344059467315673828e+00 -5.338786840438842773e-01 -7.344059467315673828e+00 1.618613815307617188e+01 1.253788566589355469e+01 -5.338786840438842773e-01 1.253788566589355469e+01 3.669107055664062500e+01
3.115018844604492188e+01 -4.460760593414306641e+00 -5.483330488204956055e-01 -4.460760593414306641e+00 2.192460441589355469e+01 1.152640056610107422e+01 -5.483330488204956055e-01 1.152640056610107422e+01 3.596708679199218750e+01
3.630153656005859375e+01 -1.048362970352172852e+00 -8.729372620582580566e-01 -1.048362970352172852e+00 2.961757278442382812e+01 9.956762313842773438e+00 -8.729372620582580566e-01 9.956762313842773438e+00 3.554440307617187500e+01
3.687619781494140625e+01 -4.313612580299377441e-01 -9.574327468872070312e-01 -4.313612580299377441e-01 3.095111656188964844e+01 9.649506568908691406e+00 -9.574327468872070312e-01 9.649506568908691406e+00 3.540378570556640625e+01
3.807423019409179688e+01 6.887556314468383789e-01 -1.202996611595153809e+00 6.887556314468383789e-01 3.389546585083007812e+01 8.976575851440429688e+00 -1.202996611595153809e+00 8.976575851440429688e+00 3.529814529418945312e+01
3.948757553100585938e+01 2.254507303237915039e+00 -1.572600841522216797e+00 2.254507303237915039e+00 3.814988327026367188e+01 7.916740894317626953e+00 -1.572600841522216797e+00 7.916740894317626953e+00 3.514347457885742188e+01
4.096587753295898438e+01 4.417741775512695312e+00 -2.241340398788452148e+00 4.417741775512695312e+00 4.488610076904296875e+01 6.032498836517333984e+00 -2.241340398788452148e+00 6.032498836517333984e+00 3.499123764038085938e+01
4.107845306396484375e+01 5.095026969909667969e+00 -2.478180646896362305e+00 5.095026969909667969e+00 4.720291900634765625e+01 5.325535297393798828e+00 -2.478180646896362305e+00 5.325535297393798828e+00 3.485350799560546875e+01
4.105923461914062500e+01 5.916734695434570312e+00 -2.779407501220703125e+00 5.916734695434570312e+00 5.015855026245117188e+01 4.273670673370361328e+00 -2.779407501220703125e+00 4.273670673370361328e+00 3.484721755981445312e+01
4.035949707031250000e+01 6.872155666351318359e+00 -3.104707002639770508e+00 6.872155666351318359e+00 5.336309051513671875e+01 2.896218538284301758e+00 -3.104707002639770508e+00 2.896218538284301758e+00 3.479679870605468750e+01
3.818529891967773438e+01 7.282538890838623047e+00 -3.297597885131835938e+00 7.282538890838623047e+00 5.405421829223632812e+01 1.954511761665344238e+00 -3.297597885131835938e+00 1.954511761665344238e+00 3.476525878906250000e+01
3.513064956665039062e+01 6.930642604827880859e+00 -3.618422985076904297e+00 6.930642604827880859e+00 5.029169845581054688e+01 2.348988533020019531e+00 -3.618422985076904297e+00 2.348988533020019531e+00 3.492309570312500000e+01
3.489397048950195312e+01 6.851247787475585938e+00 -3.880321502685546875e+00 6.851247787475585938e+00 4.841731262207031250e+01 2.607058763504028320e+00 -3.880321502685546875e+00 2.607058763504028320e+00 3.525061798095703125e+01
3.550696563720703125e+01 7.023455142974853516e+00 -4.124539375305175781e+00 7.023455142974853516e+00 4.646976852416992188e+01 2.841210603713989258e+00 -4.124539375305175781e+00 2.841210603713989258e+00 3.586335754394531250e+01
3.572804641723632812e+01 7.069520473480224609e+00 -4.168797016143798828e+00 7.069520473480224609e+00 4.611480331420898438e+01 2.852563381195068359e+00 -4.168797016143798828e+00 2.852563381195068359e+00 3.598070526123046875e+01
3.776533889770507812e+01 7.121159553527832031e+00 -4.234983921051025391e+00 7.121159553527832031e+00 4.467064285278320312e+01 2.863557338714599609e+00 -4.234983921051025391e+00 2.863557338714599609e+00 3.709432601928710938e+01
4.531448745727539062e+01 3.666579008102416992e+00 -3.539838790893554688e+00 3.666579008102416992e+00 4.171703720092773438e+01 5.373660564422607422e+00 -3.539838790893554688e+00 5.373660564422607422e+00 4.246481704711914062e+01
4.609904479980468750e+01 2.734076261520385742e+00 -3.486204385757446289e+00 2.734076261520385742e+00 4.150432968139648438e+01 6.239967823028564453e+00 -3.486204385757446289e+00 6.239967823028564453e+00 4.331665420532226562e+01
4.770197296142578125e+01 -3.285280942916870117e+00 -3.547801733016967773e+00 -3.285280942916870117e+00 3.951689910888671875e+01 1.246093654632568359e+01 -3.547801733016967773e+00 1.246093654632568359e+01 4.690685653686523438e+01
4.750476455688476562e+01 -4.182220458984375000e+00 -3.526116847991943359e+00 -4.182220458984375000e+00 3.897409820556640625e+01 1.331499195098876953e+01 -3.526116847991943359e+00 1.331499195098876953e+01 4.700474166870117188e+01
4.335573196411132812e+01 -9.117718696594238281e+00 7.344294786453247070e-01 -9.117718696594238281e+00 3.179800033569335938e+01 1.211401367187500000e+01 7.344294786453247070e-01 1.211401367187500000e+01 4.053001403808593750e+01
4.327077484130859375e+01 -9.126115798950195312e+00 1.135246157646179199e+00 -9.126115798950195312e+00 3.165424537658691406e+01 1.168589019775390625e+01 1.135246157646179199e+00 1.168589019775390625e+01 4.027195358276367188e+01
4.316869735717773438e+01 -9.148338317871093750e+00 1.541665673255920410e+00 -9.148338317871093750e+00 3.151751518249511719e+01 1.126362705230712891e+01 1.541665673255920410e+00 1.126362705230712891e+01 4.001614379882812500e+01
4.450433349609375000e+01 -6.896832942962646484e+00 6.941085815429687500e+00 -6.896832942962646484e+00 3.232968902587890625e+01 5.448728561401367188e+00 6.941085815429687500e+00 5.448728561401367188e+00 3.940703582763671875e+01
4.470199584960937500e+01 -6.549899101257324219e+00 7.350958347320556641e+00 -6.549899101257324219e+00 3.256278228759765625e+01 5.033023834228515625e+00 7.350958347320556641e+00 5.033023834228515625e+00 3.939257812500000000e+01
4.618809890747070312e+01 -6.545276045799255371e-01 1.177872371673583984e+01 -6.545276045799255371e-01 3.615023040771484375e+01 1.241705119609832764e-01 1.177872371673583984e+01 1.241705119609832764e-01 3.964567947387695312e+01
4.578531265258789062e+01 1.647802948951721191e+00 1.309336757659912109e+01 1.647802948951721191e+00 3.726796340942382812e+01 -1.147325396537780762e+00 1.309336757659912109e+01 -1.147325396537780762e+00 3.918329238891601562e+01
4.198366165161132812e+01 7.745618343353271484e+00 1.617988395690917969e+01 7.745618343353271484e+00 4.004233551025390625e+01 -4.446593284606933594e+00 1.617988395690917969e+01 -4.446593284606933594e+00 3.607475280761718750e+01
4.090508651733398438e+01 8.366310119628906250e+00 1.620685577392578125e+01 8.366310119628906250e+00 4.016374969482421875e+01 -4.913837909698486328e+00 1.620685577392578125e+01 -4.913837909698486328e+00 3.532843017578125000e+01
3.817780303955078125e+01 9.362379074096679688e+00 1.574969387054443359e+01 9.362379074096679688e+00 3.984668350219726562e+01 -5.851406097412109375e+00 1.574969387054443359e+01 -5.851406097412109375e+00 3.346227264404296875e+01
2.926749610900878906e+01 1.013444805145263672e+01 1.208304214477539062e+01 1.013444805145263672e+01 3.633519744873046875e+01 -8.394113540649414062e+00 1.208304214477539062e+01 -8.394113540649414062e+00 2.837641334533691406e+01
2.846839714050292969e+01 1.006459331512451172e+01 1.175775909423828125e+01 1.006459331512451172e+01 3.574358749389648438e+01 -8.572242736816406250e+00 1.175775909423828125e+01 -8.572242736816406250e+00 2.796810340881347656e+01
2.647434425354003906e+01 9.716568946838378906e+00 1.091125297546386719e+01 9.716568946838378906e+00 3.378868484497070312e+01 -9.002312660217285156e+00 1.091125297546386719e+01 -9.002312660217285156e+00 2.691793060302734375e+01
2.442477607727050781e+01 8.941829681396484375e+00 1.021711730957031250e+01 8.941829681396484375e+00 3.074298286437988281e+01 -9.371514320373535156e+00 1.021711730957031250e+01 -9.371514320373535156e+00 2.606824493408203125e+01
2.329458236694335938e+01 7.137012958526611328e+00 1.035782432556152344e+01 7.137012958526611328e+00 2.565699386596679688e+01 -9.242686271667480469e+00 1.035782432556152344e+01 -9.242686271667480469e+00 2.587072181701660156e+01
2.345381164550781250e+01 6.733042240142822266e+00 1.051141834259033203e+01 6.733042240142822266e+00 2.497381591796875000e+01 -9.139100074768066406e+00 1.051141834259033203e+01 -9.139100074768066406e+00 2.602786254882812500e+01
2.370060348510742188e+01 6.341471672058105469e+00 1.069378757476806641e+01 6.341471672058105469e+00 2.421830940246582031e+01 -9.062185287475585938e+00 1.069378757476806641e+01 -9.062185287475585938e+00 2.625347137451171875e+01
2.445489501953125000e+01 5.126304149627685547e+00 1.138157939910888672e+01 5.126304149627685547e+00 2.208389282226562500e+01 -8.637542724609375000e+00 1.138157939910888672e+01 -8.637542724609375000e+00 2.704012680053710938e+01
2.800822067260742188e+01 1.948138952255249023e+00 1.347001457214355469e+01 1.948138952255249023e+00 1.840028381347656250e+01 -7.290123462677001953e+00 1.347001457214355469e+01 -7.290123462677001953e+00 3.019831275939941406e+01
2.860332298278808594e+01 1.470720410346984863e+00 1.373826408386230469e+01 1.470720410346984863e+00 1.802865791320800781e+01 -7.094434261322021484e+00 1.373826408386230469e+01 -7.094434261322021484e+00 3.072306251525878906e+01
2.922207450866699219e+01 1.027550816535949707e+00 1.402156829833984375e+01 1.027550816535949707e+00 1.770470237731933594e+01 -6.879924774169921875e+00 1.402156829833984375e+01 -6.879924774169921875e+00 3.130801200866699219e+01
3.051807785034179688e+01 9.569947421550750732e-02 1.454745006561279297e+01 9.569947421550750732e-02 1.716979598999023438e+01 -6.451279640197753906e+00 1.454745006561279297e+01 -6.451279640197753906e+00 3.251848220825195312e+01
3.178763580322265625e+01 -8.652192950248718262e-01 1.498694610595703125e+01 -8.652192950248718262e-01 1.685015296936035156e+01 -6.018115043640136719e+00 1.498694610595703125e+01 -6.018115043640136719e+00 3.378942489624023438e+01
3.416971206665039062e+01 -2.802000284194946289e+00 1.560235786437988281e+01 -2.802000284194946289e+00 1.659270858764648438e+01 -5.284449100494384766e+00 1.560235786437988281e+01 -5.284449100494384766e+00 3.634421920776367188e+01
3.523515701293945312e+01 -3.794824123382568359e+00 1.582711982727050781e+01 -3.794824123382568359e+00 1.661728286743164062e+01 -5.024475097656250000e+00 1.582711982727050781e+01 -5.024475097656250000e+00 3.769871139526367188e+01
3.725772476196289062e+01 -6.555914402008056641e+00 1.631752586364746094e+01 -6.555914402008056641e+00 1.702956199645996094e+01 -4.417310714721679688e+00 1.631752586364746094e+01 -4.417310714721679688e+00 4.134848403930664062e+01
3.825238037109375000e+01 -8.546792030334472656e+00 1.677455902099609375e+01 -8.546792030334472656e+00 1.803029060363769531e+01 -4.251912117004394531e+00 1.677455902099609375e+01 -4.251912117004394531e+00 4.454057312011718750e+01
3.841363906860351562e+01 -8.918636322021484375e+00 1.690032005310058594e+01 -8.918636322021484375e+00 1.835652351379394531e+01 -4.335529327392578125e+00 1.690032005310058594e+01 -4.335529327392578125e+00 4.537104415893554688e+01
3.888880157470703125e+01 -9.231857299804687500e+00 1.723489952087402344e+01 -9.231857299804687500e+00 1.916226196289062500e+01 -4.821621894836425781e+00 1.723489952087402344e+01 -4.821621894836425781e+00 4.716611862182617188e+01
4.177958679199218750e+01 -5.992156505584716797e+00 1.676252555847167969e+01 -5.992156505584716797e+00 2.197513008117675781e+01 -7.354166984558105469e+00 1.676252555847167969e+01 -7.354166984558105469e+00 4.895813751220703125e+01
4.219749832153320312e+01 -5.489041328430175781e+00 1.655765914916992188e+01 -5.489041328430175781e+00 2.250680541992187500e+01 -7.689836978912353516e+00 1.655765914916992188e+01 -7.689836978912353516e+00 4.890932464599609375e+01
4.306120300292968750e+01 -4.370133399963378906e+00 1.601535606384277344e+01 -4.370133399963378906e+00 2.364542579650878906e+01 -8.313731193542480469e+00 1.601535606384277344e+01 -8.313731193542480469e+00 4.872824478149414062e+01
4.349505233764648438e+01 -3.769800662994384766e+00 1.573123550415039062e+01 -3.769800662994384766e+00 2.427639198303222656e+01 -8.660972595214843750e+00 1.573123550415039062e+01 -8.660972595214843750e+00 4.855014038085937500e+01
4.504782867431640625e+01 -1.841720581054687500e+00 1.469466495513916016e+01 -1.841720581054687500e+00 2.679245376586914062e+01 -9.700125694274902344e+00 1.469466495513916016e+01 -9.700125694274902344e+00 4.807852172851562500e+01
4.555028152465820312e+01 -1.169551849365234375e+00 1.431270980834960938e+01 -1.169551849365234375e+00 2.778535079956054688e+01 -1.008066844940185547e+01 1.431270980834960938e+01 -1.008066844940185547e+01 4.785068130493164062e+01
4.835378646850585938e+01 2.281326055526733398e+00 1.234339714050292969e+01 2.281326055526733398e+00 3.373402786254882812e+01 -1.172592258453369141e+01 1.234339714050292969e+01 -1.172592258453369141e+01 4.651446914672851562e+01
5.205064773559570312e+01 6.844072818756103516e+00 9.959160804748535156e+00 6.844072818756103516e+00 4.359661865234375000e+01 -1.328087615966796875e+01 9.959160804748535156e+00 -1.328087615966796875e+01 4.452752304077148438e+01
5.250741958618164062e+01 7.487627029418945312e+00 9.694257736206054688e+00 7.487627029418945312e+00 4.499788284301757812e+01 -1.338486099243164062e+01 9.694257736206054688e+00 -1.338486099243164062e+01 4.430339050292968750e+01
5.291470718383789062e+01 8.057368278503417969e+00 9.433098793029785156e+00 8.057368278503417969e+00 4.635569000244140625e+01 -1.345968151092529297e+01 9.433098793029785156e+00 -1.345968151092529297e+01 4.407065963745117188e+01
5.390206909179687500e+01 9.637335777282714844e+00 8.836987495422363281e+00 9.637335777282714844e+00 4.997221374511718750e+01 -1.351987743377685547e+01 8.836987495422363281e+00 -1.351987743377685547e+01 4.344432830810546875e+01
5.504600143432617188e+01 1.310628032684326172e+01 8.323017120361328125e+00 1.310628032684326172e+01 5.666688537597656250e+01 -1.248509407043457031e+01 8.323017120361328125e+00 -1.248509407043457031e+01 4.261734008789062500e+01
5.506864929199218750e+01 1.336833572387695312e+01 8.366779327392578125e+00 1.336833572387695312e+01 5.708226394653320312e+01 -1.232810974121093750e+01 8.366779327392578125e+00 -1.232810974121093750e+01 4.262198257446289062e+01
5.504972457885742188e+01 1.427066135406494141e+01 8.746666908264160156e+00 1.427066135406494141e+01 5.791794967651367188e+01 -1.173872280120849609e+01 8.746666908264160156e+00 -1.173872280120849609e+01 4.284700775146484375e+01
5.510358810424804688e+01 1.444501590728759766e+01 8.955690383911132812e+00 1.444501590728759766e+01 5.804045104980468750e+01 -1.156434249877929688e+01 8.955690383911132812e+00 -1.156434249877929688e+01 4.309276580810546875e+01
5.574900436401367188e+01 1.399102973937988281e+01 1.013090515136718750e+01 1.399102973937988281e+01 5.494419860839843750e+01 -1.074779510498046875e+01 1.013090515136718750e+01 -1.074779510498046875e+01 4.421252441406250000e+01
5.501807785034179688e+01 1.279935550689697266e+01 1.026510810852050781e+01 1.279935550689697266e+01 4.978710174560546875e+01 -9.585415840148925781e+00 1.026510810852050781e+01 -9.585415840148925781e+00 4.409302902221679688e+01
5.429310226440429688e+01 1.220753097534179688e+01 1.013933849334716797e+01 1.220753097534179688e+01 4.757633590698242188e+01 -9.026622772216796875e+00 1.013933849334716797e+01 -9.026622772216796875e+00 4.391002655029296875e+01
5.210334777832031250e+01 1.066320610046386719e+01 9.662949562072753906e+00 1.066320610046386719e+01 4.276704025268554688e+01 -7.603467464447021484e+00 9.662949562072753906e+00 -7.603467464447021484e+00 4.336875915527343750e+01
5.151537322998046875e+01 1.021114349365234375e+01 9.507334709167480469e+00 1.021114349365234375e+01 4.162115859985351562e+01 -7.202715873718261719e+00 9.507334709167480469e+00 -7.202715873718261719e+00 4.331056213378906250e+01
5.081153869628906250e+01 9.746172904968261719e+00 9.321015357971191406e+00 9.746172904968261719e+00 4.043820571899414062e+01 -6.794790744781494141e+00 9.321015357971191406e+00 -6.794790744781494141e+00 4.322820281982421875e+01
3.769537734985351562e+01 -8.223975896835327148e-01 5.335801601409912109e+00 -8.223975896835327148e-01 2.938091850280761719e+01 4.278681427240371704e-02 5.335801601409912109e+00 4.278681427240371704e-02 4.298579025268554688e+01
3.731471633911132812e+01 -1.386602520942687988e+00 5.121708869934082031e+00 -1.386602520942687988e+00 2.966442680358886719e+01 3.489690124988555908e-01 5.121708869934082031e+00 3.489690124988555908e-01 4.309412002563476562e+01
3.514273071289062500e+01 -6.579504966735839844e+00 2.286712646484375000e+00 -6.579504966735839844e+00 3.507452774047851562e+01 3.373937845230102539e+00 2.286712646484375000e+00 3.373937845230102539e+00 4.440999603271484375e+01